LAMMPS data file via write_data, version 29 Aug 2024, timestep = 1000, units = metal

320 atoms
3 atom types

0 41.7368 xlo xhi
0 19.162 ylo yhi
0 17.761 zlo zhi
0 0 0 xy xz yz

Masses

1 132.905
2 126.9
3 207.2

Atoms # atomic/kk

2 1 1.1230281228177608 3.5116584761148544 2.835317822668034 0 0 0
260 3 6.662619248380297 1.1571113144072616 1.1941250900718463 0 0 0
74 2 4.913281131315262 3.728105881928268 2.2151574084612 0 0 0
18 1 10.99786848648148 3.675935111089479 2.9473119266038137 0 0 0
276 3 17.248336597742025 1.2064973722322334 0.9235616936477326 0 0 0
122 2 15.212744910383304 3.5922217339287768 1.8735964379070675 0 0 0
170 2 25.80250484735875 3.7917163192427012 2.039813283196287 0 0 0
292 3 27.697622603360077 1.339395682895394 1.1841735075120863 0 0 0
163 2 29.765787731535085 3.567794537171113 0.10827061826996705 0 0 1
50 1 32.27425378005909 3.694469378298799 3.1667714160570424 0 0 0
218 2 36.12178796565983 3.4509491813262567 2.0497060106514935 0 0 0
308 3 38.18116534359694 0.9766648720407287 1.5465178432969933 0 0 0
211 2 40.03127062381369 3.537360160369037 0.2676777126253679 0 0 1
264 3 6.76634699406171 6.254902058515724 1.1760993209186046 0 0 0
280 3 17.13222415874424 5.952195940826005 0.9268558711895877 0 0 0
34 1 21.778887191396905 3.9249229831493864 2.9029555375954668 0 0 0
296 3 27.885260928356928 6.139475142382986 0.8887550398390675 0 0 0
221 2 33.11095146340327 6.19592772602746 0.03652800722896295 0 0 0
312 3 38.1667713858542 5.893178151188235 1.2563453739353934 0 0 0
6 1 0.7355017571227772 8.124521795246883 3.117268259610305 0 0 0
89 2 1.5822136221272964 10.660964834373122 0.10671807059088449 0 0 0
268 3 6.956340069285091 10.820305398026562 1.1872985161251977 0 0 0
86 2 4.840264952392795 8.464683760202046 2.242877217248643 0 0 0
22 1 11.674517742490636 8.522657833418497 3.1318949533514293 0 0 0
137 2 12.142137243414483 10.79705741533041 0.3474044121796271 0 0 0
134 2 15.321708759219161 8.349022791446153 1.9374977263014328 0 0 0
284 3 17.335784868726893 10.696844174384701 1.1369465866327901 0 0 0
38 1 21.50924589355467 8.305400153135949 2.824465164642226 0 0 0
185 2 22.636040342902223 10.784248162349872 0.2636600946494075 0 0 0
182 2 25.57815368479794 8.194724208793609 1.902404421293369 0 0 0
300 3 27.430054077399358 10.843047507199966 1.3127055325669414 0 0 0
54 1 32.14897405096271 8.425878258321386 3.3468087908324904 0 0 0
230 2 36.18778422847138 8.239242834161367 2.067311537315305 0 0 0
316 3 38.29499114477498 10.4516437168489 1.0220563386576205 0 0 0
10 1 0.6250936250342327 13.088504145343185 2.9424704715289858 0 0 0
98 2 4.629642356842699 12.789968164046327 1.902258392960024 0 0 0
91 2 8.65274721909977 13.265556764245463 0.015098017178172699 0 0 1
26 1 11.449385889505209 13.486849478351171 3.0295841874223854 0 0 0
146 2 15.518336738137874 13.069889732352479 2.2307736671526714 0 0 0
42 1 21.884512352263084 13.00178168169394 3.259336949294242 0 0 0
139 2 19.06441602664849 13.194231052571652 0.01493021073943256 0 0 1
194 2 25.798067488859907 13.259475718426355 2.1655751845699975 0 0 0
187 2 29.475872210822796 13.164405961491994 0.08830314167937227 0 0 1
58 1 32.05869665503732 13.160115194343136 2.9215968094998295 0 0 0
242 2 36.371754708100596 12.708872905409512 1.8974491731721934 0 0 0
235 2 40.107423181136106 12.919669774226307 0.03957478988786464 0 0 1
14 1 0.907528574811098 18.05638823880211 2.780945179424761 0 0 0
101 2 1.547159743393179 15.585700619803111 0.041122169523817455 0 0 0
272 3 6.7184081081120395 15.438747981004283 1.1791829785721972 0 0 0
110 2 4.55967093951616 17.88077164770277 2.050571847264627 0 0 0
30 1 11.332039405251832 18.183100668606034 3.2611352693667537 0 0 0
103 2 8.510503142413969 17.909300527571144 0.1503280449645119 0 0 1
149 2 11.930708113497516 15.764756255549258 0.4008837614465157 0 0 0
158 2 15.470773913692078 18.173209411443246 2.0230589363883116 0 0 0
288 3 17.32717748834847 15.634344057770468 1.2478870525863501 0 0 0
46 1 21.729492934694314 18.28560167249572 3.1421432029945042 0 0 0
197 2 22.521475214420246 15.531768737484708 0.044815367667642526 0 0 0
151 2 19.271318884600213 17.963487468896602 0.2976222171986598 0 0 1
206 2 25.85871756252653 17.928389638726493 2.0698991907488273 0 0 0
304 3 27.629819822334884 15.408793923450254 0.9365582701541815 0 0 0
62 1 31.753146229522017 18.126958377284325 2.957999608446505 0 0 0
245 2 33.074301587218514 15.513787805101732 0.2757186110538372 0 0 0
254 2 36.331223087561796 17.754351770624524 1.9941852156040678 0 0 0
320 3 38.239630367497874 15.371720880484105 1.063033213502328 0 0 0
247 2 40.06405107175127 17.9810189175066 0.03138462374729193 0 0 1
69 2 3.102341149393172 1.1509823632422829 5.2444854243156245 0 0 0
3 1 6.115860084111232 3.6146896568230225 5.919612175332959 0 0 0
72 2 8.322912682294367 1.3899494484661672 3.741407802522352 0 0 0
75 2 10.118873637451372 3.6355066229160475 6.680572978664065 0 0 0
117 2 13.623539896090753 1.065859919703339 4.913167716997422 0 0 0
19 1 16.57106599840225 3.5118509546787147 5.58726299126487 0 0 0
120 2 18.53238600826546 1.626339026110609 3.709402608117036 0 0 0
123 2 20.69495023977947 3.622596898993931 6.737551266143249 0 0 0
165 2 23.916353603128652 1.262919737261078 5.0901778352931135 0 0 0
35 1 27.051132514797217 3.6206046738333013 5.629768369551119 0 0 0
168 2 28.869735403691646 0.995303300810905 3.9107441047100213 0 0 0
171 2 30.777336094313092 3.4586112179419177 6.922385857443344 0 0 0
51 1 37.32071191329026 3.6097312265037496 5.777964759950672 0 0 0
213 2 34.59136125818456 1.147151534691703 5.0159155260643695 0 0 0
216 2 39.769966747783506 1.2834538248850274 4.202013093496701 0 0 0
219 2 41.441607971678096 3.712708148066894 7.052764684719875 0 0 0
81 2 2.936173454936845 6.171832714560499 5.210440175479147 0 0 0
84 2 8.576542050677608 6.170923481380524 3.6915361386156 0 0 0
129 2 13.631390303697628 5.8258266106063905 5.13708438587612 0 0 0
132 2 18.701894633041054 5.911971644358797 3.723129375008015 0 0 0
177 2 24.250263077886256 6.159206261097459 4.85241493954628 0 0 0
180 2 29.428056549338706 5.794881064362025 3.7484906097572255 0 0 0
225 2 34.37678592829836 5.897564813473591 5.217104993150239 0 0 0
228 2 39.68849038929473 6.277743183532088 3.7091487208258536 0 0 0
93 2 3.2261028315791207 10.894230714135551 5.026918477469771 0 0 0
7 1 6.011343878960489 8.30007834060083 6.306644329654378 0 0 0
87 2 10.169044423800631 8.535405375228397 6.764349905815203 0 0 0
96 2 8.619441539924722 10.737067009097393 3.7772693726993887 0 0 0
141 2 13.631280190825718 10.869095606385713 5.241241842337226 0 0 0
23 1 16.643153935863065 8.313342331411329 5.711426155813661 0 0 0
144 2 18.819045685200518 10.64222753303363 4.005223635733827 0 0 0
135 2 20.526047524167513 8.52278900039128 7.001106393294811 0 0 0
189 2 24.087340211654336 10.523255451530613 5.0093939640019105 0 0 0
39 1 27.264743782113907 8.313848136635222 5.482574703124492 0 0 0
192 2 29.230879290136606 11.037943455863276 3.8647080358599166 0 0 0
183 2 30.934316943499937 8.379231614568086 6.81827134916041 0 0 0
55 1 37.36377262507429 8.732779800520172 5.864989143481828 0 0 0
237 2 34.32399869261966 11.036807974635511 5.04640630812461 0 0 0
231 2 41.2822022759133 7.981061882822091 6.866843445955496 0 0 0
240 2 39.7068644709157 10.820731271593004 3.673352098698319 0 0 0
11 1 6.242286614442802 13.18042007388283 5.804781287469003 0 0 0
99 2 10.000710142009206 13.435976283241244 6.9397073339476805 0 0 0
27 1 16.856561065008847 13.196096725468351 5.957862700741228 0 0 0
147 2 20.563504255526887 13.338014562801119 6.750688031330673 0 0 0
43 1 26.823438755167132 13.131249702544588 6.029559299478648 0 0 0
204 2 28.930627234668904 15.315374583964246 3.641616859256283 0 0 0
195 2 30.93723064894019 13.084880966573746 6.905922315357933 0 0 0
59 1 37.231148936050886 13.38860595126013 5.692432316969753 0 0 0
243 2 41.142919047259625 12.971851904549304 6.909822605750357 0 0 0
105 2 3.113399877997712 15.625115121726115 4.859025399826763 0 0 0
15 1 6.065132265338433 18.063567316526008 6.053745711054904 0 0 0
108 2 8.264034735825078 15.90187370666282 3.7093144290789994 0 0 0
111 2 10.047478876776045 17.797202221334253 6.626702973037723 0 0 0
153 2 13.54431194564835 15.527217805690158 5.043635883118085 0 0 0
31 1 16.58694898551688 17.62888947877847 5.738350435911239 0 0 0
156 2 19.03635354075995 15.58491195278797 3.7263549232518973 0 0 0
159 2 20.611010676575063 17.99246197162166 6.8079149453138275 0 0 0
201 2 23.821317713427156 15.747252558146075 4.942761209839776 0 0 0
47 1 26.844906443439726 17.63142519019537 5.899335386000654 0 0 0
207 2 30.734084230640068 17.966414923444415 6.379169348129529 0 0 0
249 2 34.07668380841222 15.601461511173277 4.656271989464735 0 0 0
63 1 36.979755928049315 17.69916274380989 5.832182564808763 0 0 0
252 2 39.73292019319876 15.455681130779858 3.72082870651758 0 0 0
255 2 41.45588496330897 17.69915730510783 6.925512794486625 0 0 0
257 3 1.594200673701422 1.1032345591971056 7.821132548934376 0 0 0
66 2 3.315317681163104 3.5008738238905672 8.936441990511874 0 0 0
68 2 6.904435850154283 1.4443214502866382 8.8607144058346 0 0 0
259 3 8.825656843223156 3.539626043253636 9.845502422905943 0 0 0
121 2 10.758406849038398 0.9672744483101426 10.64839029496242 0 0 0
273 3 12.105576213984998 1.173691577316254 7.740508167192296 0 0 0
114 2 13.667508642481202 3.7107940464908644 8.880945153074764 0 0 0
116 2 17.471021772413117 1.484790994460736 8.629765171515238 0 0 0
275 3 19.44246285689646 3.736498843069431 9.900807763283307 0 0 0
289 3 22.460739442209793 1.2559325943279136 7.726322462514543 0 0 0
162 2 24.42035590260709 3.549895734852308 8.810162182078495 0 0 0
164 2 27.94361255055635 1.2450375655828805 9.21036274681958 0 0 0
291 3 29.749533533986096 3.624695882628108 10.16279121252879 0 0 0
305 3 32.82491838745938 1.1545665739065696 7.592786534410838 0 0 0
210 2 34.81711579599117 3.4098517888817184 8.731607618773085 0 0 0
307 3 39.91290128836466 3.3935704987978945 10.070252009055666 0 0 0
212 2 38.27571051905298 1.1751326370466955 8.659700245814912 0 0 0
261 3 1.590934132678314 5.991344096575265 7.93277367603225 0 0 0
80 2 7.039653137382989 5.992831921597225 8.995434990968374 0 0 0
277 3 11.975429607678814 6.020470637645736 7.823360269421665 0 0 0
128 2 17.334284708939272 5.959307342269963 8.761288784771512 0 0 0
293 3 22.839378876743474 6.193220761479278 7.604211150895472 0 0 0
176 2 27.634835887632264 5.874361327725041 8.948014365495428 0 0 0
309 3 32.99848518302031 5.926270306375909 7.9254679281486435 0 0 0
224 2 38.242717789734975 5.704057333601665 9.04560407746376 0 0 0
265 3 1.4861042770923811 10.519895562747513 7.69561695270818 0 0 0
78 2 3.4229198030709016 8.531621356754698 9.07976637369925 0 0 0
92 2 7.209459726699459 10.768234279349022 8.889176922783784 0 0 0
263 3 9.029176545559004 8.352430342653062 10.036362311749878 0 0 0
281 3 12.081249629208656 10.804085834614416 8.048276929371324 0 0 0
126 2 14.285932683250582 8.673900255138497 8.778430675356553 0 0 0
140 2 17.278819135022694 10.825618332549737 8.958049395819552 0 0 0
279 3 19.31372976466921 8.525747975952482 9.99044890311601 0 0 0
297 3 22.679884637250563 10.888304097194439 8.008872277280512 0 0 0
174 2 24.477063877527243 8.56302254199181 8.68736128919863 0 0 0
188 2 27.834588308857743 10.883966436572349 8.810335538701906 0 0 0
295 3 29.654758836915594 8.169347756256839 9.933632054817055 0 0 0
313 3 33.013889384786495 10.802376886281106 7.722468614799176 0 0 0
222 2 34.91504895961677 8.284513440558898 8.937996296649839 0 0 0
236 2 37.80953818009786 10.835517787055426 8.957292046163845 0 0 0
311 3 40.125185014398376 8.188269294468006 9.940888148260694 0 0 0
90 2 3.7112009558731103 12.816734814272344 8.719807844720625 0 0 0
269 3 1.793617196529889 15.279840901853305 7.623509191076981 0 0 0
267 3 8.725704607254364 13.14151236626814 10.263052758236539 0 0 0
138 2 13.898481840560569 13.11404924904486 9.07437118175539 0 0 0
283 3 19.02709848314076 13.367065275313037 9.681983725943313 0 0 0
186 2 24.54370234891186 13.378671232925383 8.927118022241812 0 0 0
299 3 29.575696242633835 13.15564024781291 10.188649937196915 0 0 0
234 2 34.594796927247785 13.437868623995657 8.735831917786584 0 0 0
315 3 39.8369558061338 13.043377427134688 10.029845254337124 0 0 0
102 2 3.5147494111458273 17.682665508033114 8.864945887173354 0 0 0
109 2 0.3291994794074295 15.548058607314998 10.634899685899464 0 0 0
104 2 7.133665443303701 15.62063448577912 8.690336674216383 0 0 0
271 3 8.80997131083408 17.79569857486014 9.787393424510151 0 0 0
150 2 13.865282517408797 18.19834918025174 9.061821614492835 0 0 0
285 3 12.029073936519072 15.566142900959742 7.66556736509526 0 0 0
152 2 17.39943883467085 15.816145245493674 8.818743101049462 0 0 0
287 3 19.1351782325573 18.20712089815585 9.677775202361692 0 0 0
301 3 22.502739656122884 15.477474956624922 7.766995798870731 0 0 0
198 2 24.136921189930504 17.918298551034756 9.262810827662781 0 0 0
200 2 27.780903687588527 15.854139890235176 8.97864016721239 0 0 0
303 3 29.489560744921306 18.032796352209147 10.297439850907637 0 0 0
317 3 32.63499506301807 15.602001809316874 7.448951536328927 0 0 0
246 2 34.79379213077757 17.82099534660208 8.771415924919767 0 0 0
319 3 40.218108927854345 17.957444628318758 9.85176988621133 0 0 0
248 2 38.29239532278042 15.36604606716296 8.794452430636122 0 0 0
70 2 2.1697376680186613 3.307599719231232 13.79126511313853 0 0 0
73 2 0.4318787943454591 0.9986922092262205 10.898070670820006 0 0 0
1 1 4.391173104816183 1.1128247928427453 11.733616633667895 0 0 0
71 2 7.302589322098068 3.710378372270515 12.590965462660666 0 0 0
17 1 14.827960814073872 1.4761859391786951 11.983944646177395 0 0 0
118 2 12.411375055081349 3.5485564196900192 13.75388549028908 0 0 0
119 2 17.910821032585115 3.665110944392085 12.488615901414096 0 0 0
169 2 21.288563835024735 1.3388091776163287 10.865654268163764 0 0 0
33 1 25.152151880956627 1.056812363401329 12.202882650337747 0 0 0
166 2 22.820938180936924 3.4043360997744396 14.039030202953725 0 0 0
167 2 28.309626986557937 3.687874187058871 12.760533602642274 0 0 0
214 2 33.40780711756193 3.8223850559983563 13.987040942445773 0 0 0
217 2 31.821846943153037 1.374534242464908 11.08125117827017 0 0 0
49 1 35.55499838893043 1.0409013816273343 11.876115607915754 0 0 0
215 2 38.3137651207863 2.9937158671555655 12.720628137222695 0 0 0
85 2 0.5032609965019117 5.9678050664932405 10.89424469172497 0 0 0
5 1 4.285181856833655 6.041948360833219 12.099244511150149 0 0 0
133 2 10.998232336250297 6.098266445494076 10.897299767860773 0 0 0
21 1 14.850722233422374 6.069830604709835 11.88328091855641 0 0 0
181 2 21.516033917264068 6.0379267905128735 10.684064120763145 0 0 0
37 1 25.284816897471828 5.713055499026296 11.900939919549895 0 0 0
229 2 31.778169584567692 6.017327876052266 11.255630716840232 0 0 0
53 1 35.85898516645589 5.557433051874623 11.903778580735775 0 0 0
82 2 2.3560236352223374 8.37742649286988 14.13695681939494 0 0 0
97 2 0.46687674267653856 10.594768877130614 10.783662365256827 0 0 0
9 1 4.5121801475886825 10.524099156848335 12.017912097821052 0 0 0
83 2 7.407805897686986 8.190877539249685 12.736905403950969 0 0 0
145 2 10.857657116801045 10.830836130691484 11.089987086268353 0 0 0
25 1 14.94993197740724 10.75729303874098 11.938538914246235 0 0 0
130 2 12.649576725141905 8.385173580508553 14.067481446919771 0 0 0
131 2 17.886012343120633 8.67050027444926 12.757056412505708 0 0 0
193 2 21.166023203531648 10.945580239849535 10.964029187865487 0 0 0
41 1 25.34773848664668 10.926308460616506 11.73234019647014 0 0 0
178 2 22.87019758285555 8.392951443250405 13.733655288126982 0 0 0
179 2 28.181956203730525 8.165791978175019 12.51964277513089 0 0 0
226 2 33.35005888943632 8.213882651726635 14.134812786924286 0 0 0
241 2 31.712425582464427 10.706628597577815 10.658110151472421 0 0 0
57 1 35.80158536473839 10.518659271583568 11.971201127897501 0 0 0
227 2 38.670798363188105 8.288136380423738 12.685811125074386 0 0 0
94 2 2.145624543372798 13.198233904404972 13.718672936451586 0 0 0
95 2 7.181545942594419 13.259121445533042 12.936359125880097 0 0 0
13 1 4.520864473997976 15.311370289650608 11.8771462079221 0 0 0
143 2 17.89488077919661 13.485593231184277 12.447513326499495 0 0 0
190 2 22.963010764959755 13.257797936061145 14.196121695613142 0 0 0
191 2 28.170242164541015 13.23508320137698 12.692505204444288 0 0 0
238 2 33.555221615804456 13.123498203287529 13.78602291682087 0 0 0
239 2 38.655023196282144 12.869963306500207 12.841658119014706 0 0 0
106 2 2.1319878053404784 17.894790163609134 14.003766959684459 0 0 0
107 2 7.179298544224126 17.981286364540033 12.351043449137178 0 0 0
157 2 11.000443783574717 15.380509727630063 10.885694709672531 0 0 0
29 1 14.628903992749255 15.707934474841972 12.019764554810111 0 0 0
154 2 12.627676233344834 17.985187990614428 14.107152239793228 0 0 0
155 2 17.567794839433848 18.14204512670893 12.569142497942691 0 0 0
205 2 21.210544208055957 15.706350747581098 10.72269542524452 0 0 0
45 1 24.942752189405628 15.652521372107481 12.14646361446786 0 0 0
202 2 22.795559469850723 17.682946001953887 14.05374919970769 0 0 0
203 2 27.805774407469418 17.923646326022443 12.944047548014836 0 0 0
250 2 33.40530312037127 17.821632320651997 13.884037476473527 0 0 0
253 2 31.74826355963006 15.726161371839686 10.684530325427351 0 0 0
61 1 35.57984759961777 15.507142712365148 11.78931130815326 0 0 0
251 2 38.57072616305633 18.00458943354968 12.542437824549799 0 0 0
65 2 1.764088652853622 1.3677080632817773 17.629580554934368 0 0 -1
258 3 3.6776984265820793 3.5093539276175587 16.4173619352419 0 0 0
76 2 5.737729792198428 1.1495339798039164 15.566061966216703 0 0 0
4 1 9.438268774396164 1.1880044998547963 14.720177156463018 0 0 0
67 2 8.599001141402287 3.5383123388484434 17.68964721498521 0 0 0
113 2 11.966085084044506 1.355265049861041 17.68994210910407 0 0 -1
274 3 13.886658333863645 3.72432663984232 16.460809857960843 0 0 0
124 2 16.04474874642242 1.2229139455404199 15.693302957766047 0 0 0
161 2 22.52045525638011 1.2902797093842613 17.699887042096478 0 0 -1
20 1 19.92959614001157 1.1020860603224123 14.916744245884749 0 0 0
115 2 19.093928384250635 3.761846310066546 17.65414400813471 0 0 0
172 2 26.420735183173093 1.0608158342409266 15.696665121378457 0 0 0
290 3 24.378952781425603 3.756263831618588 16.61725152019128 0 0 0
209 2 33.171157228339254 1.0127743124266222 17.58172004536953 0 0 -1
36 1 30.638156660155733 1.556703270113304 14.61394427701938 0 0 0
306 3 34.96916339530881 3.6654391111609383 16.694058607749923 0 0 0
220 2 36.959180844844624 1.2902826037890132 16.016909628230472 0 0 0
52 1 40.8564239938606 1.2541493682997213 14.838783456026325 0 0 0
77 2 1.7187858695893297 5.736694066269312 17.580058734872704 0 0 -1
88 2 5.604480434653026 5.920068126426003 15.717662935891804 0 0 0
8 1 9.450868482953679 5.948500503418865 14.814082793896688 0 0 0
125 2 12.192768810401422 6.224888725381841 17.74226051532234 0 0 -1
136 2 15.841703399529042 6.048083069382248 15.701306101227813 0 0 0
173 2 22.51527758332372 6.017075608356461 17.707434713262828 0 0 -1
24 1 20.16793994163156 5.8394611924505755 14.640742762967916 0 0 0
184 2 26.17692293896919 6.188803295451947 15.649183031706725 0 0 0
40 1 30.562931127231277 6.12047024885337 15.064993448197859 0 0 0
232 2 37.048886827833776 5.986826100777656 15.569792084171272 0 0 0
56 1 40.91183444761883 5.847873707993599 14.826380984595758 0 0 0
262 3 3.5553233546209193 8.180258302208028 16.894831084974932 0 0 0
100 2 5.421429705203107 10.85258069203151 15.69813682239831 0 0 0
12 1 9.366747165854497 10.796104661731285 14.868077563070095 0 0 0
79 2 8.888063392731574 8.426725964762724 17.685421476300217 0 0 0
278 3 14.072979715928065 8.650440302603105 16.674949526079228 0 0 0
148 2 16.090514098313765 10.941896272315491 15.925130314511488 0 0 0
28 1 20.04365656614402 11.07928510096664 14.734700087507584 0 0 0
127 2 19.271201619911945 8.245988041063791 17.57718478220501 0 0 0
294 3 24.32595108497432 8.59705786700229 16.589365367544655 0 0 0
196 2 26.27963836545933 10.848531482067427 15.57228651675868 0 0 0
175 2 29.684860337466098 8.663668972981077 17.703307367183918 0 0 0
233 2 33.03420511026674 10.702598603098872 17.65471843057754 0 0 -1
44 1 30.435367420864395 10.874380026206389 14.278574902497848 0 0 0
310 3 35.06019457074241 8.413299104001354 16.694652821880272 0 0 0
244 2 36.98287167440341 10.956324628008273 15.700116850643404 0 0 0
60 1 41.018234495901105 10.451182192105808 14.776131246350925 0 0 0
223 2 40.25600091335263 8.179807337104593 17.64081377453455 0 0 0
266 3 3.234047709362646 13.187358819704333 16.586525191890452 0 0 0
142 2 12.708098955295263 13.412301411979087 14.314416190821486 0 0 0
282 3 13.859586671694197 13.464841639415992 17.1185024121089 0 0 0
298 3 24.43303858472248 13.260132604024822 16.89453692175557 0 0 0
314 3 34.771860150991415 13.196692480562518 16.610430643206442 0 0 0
270 3 3.740114219790672 18.176458675977262 16.554480689247935 0 0 0
112 2 5.377093835910281 15.505099481982597 15.781120975252474 0 0 0
16 1 9.732103749243423 15.567657928345753 14.67300412231056 0 0 0
286 3 13.926795407735876 18.025419989172992 16.847959801795184 0 0 0
160 2 15.728972445592076 15.523369462617188 15.797601428267937 0 0 0
32 1 19.79551911016975 15.645959273357104 14.787507003071697 0 0 0
302 3 24.354105703437657 17.960958543382823 16.589884404252143 0 0 0
208 2 26.29490881127282 15.481465763182973 15.69971846041391 0 0 0
199 2 29.47363562439863 17.925859448388234 17.590932666883145 0 0 0
48 1 30.864665563119036 15.331049915865608 14.887636847141962 0 0 0
318 3 34.988422701610624 17.864761089991802 16.545302460392275 0 0 0
256 2 36.93955584320098 15.498509844268474 15.74980225731467 0 0 0
64 1 40.60662528021957 15.624019075319481 14.631162830736276 0 0 0

Velocities

2 -1.7217791886411988 2.3482351297157638 1.8281203850938261
260 -0.7809993176556539 -0.6316788683597145 0.5545138638279241
74 -1.0761140325300937 -0.7534813399888886 1.7129828562965363
18 0.528363795954542 0.1436701167907002 -1.0735720115782639
276 -0.0701732771428874 1.203721669627095 0.14745603404417273
122 1.2893353941345451 0.2589866635249422 -1.732977538893278
170 -1.0707142277143065 -0.36544833212280137 -0.8105986711539098
292 0.6275758458197759 -3.0601913346995815 -2.241402805719055
163 0.2268763560419995 3.6400994551420784 -1.653035429867122
50 -1.2541148287356045 0.07181291924013859 0.041117667761354906
218 -1.996606946936285 0.1659555239222179 0.7456437353441642
308 1.9139715229762202 0.28922862895285467 -0.5698897019872751
211 2.277178090851774 -0.30588920634690286 0.745080523686722
264 -0.48502154207568193 0.341623034439186 1.9500906009071022
280 0.12997694656574063 1.3839149233805474 -1.084924881872198
34 -0.4278606344644595 0.616786126817622 0.6016331439868497
296 -2.3247586537604183 -0.762394252721141 -0.4533797286595879
221 -0.23433555141510298 -0.6931362243011066 0.44122833308907944
312 -2.911423568611139 -0.8152383811901073 2.465623882249065
6 0.4515584773121372 -1.2294440587691506 -2.411448854836853
89 -2.1567655598670132 0.3096975087936325 -0.3279239844353824
268 0.9554538195845513 0.5245014996858469 0.2311055788289335
86 0.8805503442141099 -0.2797176900565747 0.470309641289034
22 -0.6339331523601439 0.1263774873793532 0.40276320092398943
137 -3.0727676463155955 0.32304882978880956 0.9561253627470827
134 1.4099878284042964 1.0738527530536073 1.292911757665261
284 -2.1517890085603666 0.47065811696487053 -1.060535976805509
38 0.4497516478697201 -1.5082814067546353 2.3893009649695975
185 1.3291363775770124 -2.425072548718133 0.40009099372883966
182 -0.9913748961719349 -1.0632857167631946 -2.1586193080705045
300 0.5869337305190496 0.94181737734344 -0.8059690281992954
54 -0.6654875975470629 0.7826413435696896 0.14013915768232701
230 -0.7237154381148019 -0.8421736350134079 1.5265790236547838
316 -0.4392611485093182 -1.3926673088323422 -0.7796332570404394
10 0.8616234545743624 0.40382889469898475 2.008963697429071
98 1.3712298991994663 2.140371379162843 -0.2169133110003159
91 0.45524108218742515 -1.259260021512407 1.0110753848409586
26 0.8488331700443739 -1.5870890007985077 -1.326582480894459
146 -0.35786774637946955 0.7640378259900572 0.23689894470881362
42 0.13555707446815252 3.0852496915523524 -2.583922376080979
139 0.7898694092285037 1.0256716824332637 -0.31238630293412734
194 -0.5510639715251108 1.4811677387409026 2.541471849423015
187 0.0587784103559194 -1.222364061498065 -0.05392717169056557
58 0.34088496500315363 0.604221673906086 -1.4648089533773432
242 0.037097441727816545 1.9465341711944824 -0.7244590714383964
235 -0.8454477963470942 -0.05417173624561078 1.465623215056073
14 -1.13587580940032 0.8321712786318386 1.113039536106156
101 0.06274985676097421 1.2369592971736905 0.33858162130778807
272 1.6066063601037026 -2.0527382502305103 -0.4075829612673216
110 2.6218442801941872 -0.15919427371031655 1.578748141189102
30 -1.5626166949661178 1.0652985537070818 0.652097592990461
103 -1.0386738422984414 -0.0972489705066101 0.7165598289777663
149 -0.654388295043607 -0.734480800075035 0.3687813676617393
158 -0.4118721369017941 0.990147005212779 2.2066652183174824
288 -1.2566382062015142 -0.2847775700438263 1.7055021264165904
46 -0.1923279720762119 -0.07142260019439267 0.9717616975432007
197 -1.3956963668674183 -0.7982507919448328 -1.2039314992204266
151 -1.7613840443154676 -1.3363902916889714 -1.2129209647694825
206 0.3549079265441535 0.6034027254362139 1.1310655780956738
304 -0.5235211620192063 0.8686994292605488 -1.5718341137454863
62 -0.11621148831779261 -1.5977173620150684 -0.42784684014867125
245 3.021955284464613 1.9940672072298213 -2.3032321653109857
254 1.384309538693061 -1.7677063689219654 1.020620602421228
320 0.7405470156974141 0.12028277985441413 0.13544920163965435
247 2.0034743423993437 -2.8942968352307212 -2.1289912665996287
69 0.5437374172487593 -0.21517892065713337 0.48546235673425886
3 -1.1821821525101885 0.17558268911872293 0.7234055015624608
72 3.3227196452978554 -0.30348602113562534 -0.39901164178563453
75 3.100727405116486 0.008111452768734359 -1.4349556946399253
117 -0.07662821432014497 0.5903477044596589 -0.82942206769886
19 0.220587952031515 2.17785475828227 1.8993154978849802
120 2.1726166647709584 3.402189528530059 -0.19503135786986103
123 4.309465507082289 -0.1256757460792238 -1.024621476799355
165 1.8273244122002894 0.6053535489300531 -0.08661380825550156
35 1.2756385763575462 1.5530057297384026 -0.041576570208180334
168 0.7361796646637218 0.19891716659686628 -0.4967819416842094
171 -1.3886593894752846 -0.9091526234723698 -0.5578335848662538
51 -1.0053732432577576 -1.8704209972227803 1.937507015484517
213 0.8772699354137743 -1.2011401240700674 -0.66973272328518
216 0.8073323760049498 -1.9890626095226458 3.5642046693728435
219 0.3700190432015227 -1.5016914731787971 -1.9158433416509995
81 -1.9539360617732615 -0.8209808433202673 -0.7028207926334746
84 2.05915292195331 2.8874920971649867 -1.129600600593318
129 2.21267584183678 -1.812643496083398 0.060807299268833236
132 -0.5683982437854609 0.1478726200821503 -0.4604572185465572
177 1.5740659237373305 -2.2614775989862514 0.24928335907796337
180 0.11542321875828747 0.4815823863205408 -1.2773220159248764
225 3.021461491470097 1.9454685551865691 0.01197707245845972
228 -0.3451078662427173 -1.0491615440144644 1.9668781912700857
93 -0.5634528043153858 -0.1881512170823196 0.2932218695346703
7 -1.4918914979548696 -0.9957072502752219 -1.360097878047906
87 0.15089490412534634 1.3233101938778822 -1.1428495143809265
96 2.1961048373563297 2.192588638734795 2.397271338264833
141 -0.2027109033980984 -1.6200314145193297 -0.884944831565669
23 0.5311874509378938 0.8279075876025727 -3.3030620785838063
144 -1.4543430793233298 -1.1817542101742302 0.7952003403069666
135 -1.0663903104184822 -0.04712588279964215 -2.507404192426878
189 -1.5280584995954327 0.7955380061090682 2.4410711424673104
39 1.2370595171215817 -2.224231525376787 -0.8726175091591708
192 0.9253675835013699 -0.40127740803244644 -2.8955176695993723
183 -2.5000354831896123 1.2644760525357526 0.4200027101548655
55 -0.38508100027448894 -1.7236821430545939 0.7332921511573564
237 -0.18206480937617692 -0.5257610015994929 0.15188642059803886
231 1.2451043981562238 3.49685521648203 -1.9474134899775084
240 0.9504808399563693 -1.5678014330592127 -1.0512961333756552
11 -1.5936502625419202 0.727077287749529 -1.9095429652876876
99 2.1580630336764886 1.6956717074727583 0.6334904533684806
27 -1.3727683056122726 -2.7879642167680356 2.6046262096520176
147 -1.4731420178443668 -0.3741929476492508 1.26548270265397
43 1.099834283962187 0.16760978826707648 0.8220903289245297
204 1.243282486979178 1.3398536416910287 -0.25044802726111093
195 -1.7852764954104847 1.4270542156310544 -2.3404672436420726
59 1.9259067131902483 -2.4812214095019542 -0.1701370591287273
243 -1.177590822304077 -1.6122394311818204 -0.368102738310383
105 -0.08441327459755237 -1.2754010674442973 -0.7959421358295001
15 1.2770969635944396 -0.9144812139623878 -1.0621301393116842
108 -1.0056386113010938 -0.675935657004431 -1.866647017695731
111 -2.0171412236459094 -0.2048926627590246 3.6770070142373363
153 -0.7267143024285511 0.04371763594027114 -0.5811486800097083
31 -0.7967821528236647 -2.1697646531738997 0.08480224877204531
156 0.8524819022391892 0.9711825094781393 1.1695141632327186
159 -0.7598579781084455 0.3399740437793521 -0.029724377805524095
201 -0.3805358237575862 -0.5776793227136899 0.18226438398599706
47 -0.9561967363883389 1.8321434563872099 -1.870200153781382
207 -3.445029736962928 0.3927176279353957 2.412208724943911
249 -2.084035884782249 -1.65082246935293 -1.5077201478370548
63 -1.7213695287515671 0.9907465888795677 -1.253688339083198
252 0.5838913599906104 -0.4049417677981884 0.7827977799334523
255 -0.4220111700722323 3.567490975755956 -0.251837988626168
257 1.2594342436454005 -0.7568074049960792 2.00074821126063
66 0.5397726994124121 -1.8577667857965041 1.3441808725634128
68 0.5796291193783667 -0.7200519533130647 0.26667570820784303
259 -0.5767631014914775 -0.7269299509553835 1.452273513671299