LAMMPS (29 Aug 2024 - Development - 5b9cae1)
KOKKOS mode with Kokkos version 4.3.1 is enabled (src/KOKKOS/kokkos.cpp:72)
  will use up to 1 GPU(s) per node
  using 1 OpenMP thread(s) per MPI task
package kokkos
units         metal
atom_style    atomic
atom_modify   map yes
newton        on

boundary p p p

#read_data structure.data
read_data data.CPI
Reading data file ...
  triclinic box = (0 0 0) to (41.7368 19.162 17.761) with tilt (0 0 0)
  1 by 1 by 1 MPI processor grid
  reading atoms ...
  320 atoms
  read_data CPU = 0.004 seconds

variable        p_id world   1

variable        temperature equal 300.0
variable        temperature2 equal 300.0
variable        tempDamp equal 100.0 # approx 0.1 ps

variable        pressure equal 1.00
variable        pressureDamp equal 500.0

variable        seed world 1428


mass            1 132.905  # Cs
mass            2 126.900  # I
mass            3 207.2  # Pb


pair_style  grace
[GRACE] TF version: 2.16.2
[GRACE] Neighbour padding is ON, padding fraction: 0.01, max padding fraction before reduction: 0.2, max number of reduction(s): 10
pair_coeff  * * /users/pahlawat/.cache/grace/MP_GRACE_2L_r6_11Nov2024 Cs I Pb
[GRACE] Loading /users/pahlawat/.cache/grace/MP_GRACE_2L_r6_11Nov2024
[GRACE] Model loaded
[GRACE] Mapping LAMMPS atom type #1(Cs) -> ACE species type #18
[GRACE] Mapping LAMMPS atom type #2(I) -> ACE species type #33
[GRACE] Mapping LAMMPS atom type #3(Pb) -> ACE species type #55


neighbor 1.0 bin
neigh_modify delay 5 every 1

#write_dump all custom output.dump id type x y z fx fy fz
#
variable freq equal 100
#variable dt equal 0.001

thermo          ${freq}
thermo          100
thermo_style    custom step temp pe ke etotal press lx ly lz xy xz yz
restart         ${freq} restart.0 restart.2
restart         100 restart.0 restart.2

#minimize 0.0 1.0e-3 100 10000

# NVT

dump            myDump1 all atom 100 out.0.lammpstrj
fix             1 all temp/csvr ${temperature} ${temperature} $(100.0*dt) ${seed}
fix             1 all temp/csvr 300 ${temperature} $(100.0*dt) ${seed}
fix             1 all temp/csvr 300 300 $(100.0*dt) ${seed}
fix             1 all temp/csvr 300 300 0.10000000000000000555 ${seed}
fix             1 all temp/csvr 300 300 0.10000000000000000555 1428
fix             2 all nve
timestep        0.002
velocity        all create ${temperature} ${seed} dist gaussian
velocity        all create 300 ${seed} dist gaussian
velocity        all create 300 1428 dist gaussian
run             1000

CITE-CITE-CITE-CITE-CITE-CITE-CITE-CITE-CITE-CITE-CITE-CITE-CITE

Your simulation uses code contributions which should be cited:

- Type Label Framework: https://doi.org/10.1021/acs.jpcb.3c08419

@Article{Gissinger24,
 author = {Jacob R. Gissinger, Ilia Nikiforov, Yaser Afshar, Brendon Waters, Moon-ki Choi, Daniel S. Karls, Alexander Stukowski, Wonpil Im, Hendrik Heinz, Axel Kohlmeyer, and Ellad B. Tadmor},
 title = {Type Label Framework for Bonded Force Fields in LAMMPS},
 journal = {J. Phys. Chem. B},
 year =    2024,
 volume =  128,
 number =  13,
 pages =   {3282–-3297}
}

CITE-CITE-CITE-CITE-CITE-CITE-CITE-CITE-CITE-CITE-CITE-CITE-CITE

Neighbor list info ...
  update: every = 1 steps, delay = 5 steps, check = yes
  max neighbors/atom: 2000, page size: 100000
  master list distance cutoff = 7
  ghost atom cutoff = 7
  binsize = 7, bins = 6 3 3
  1 neighbor lists, perpetual/occasional/extra = 1 0 0
  (1) pair grace, perpetual
      attributes: full, newton on
      pair build: full/bin/atomonly
      stencil: full/bin/3d
      bin: standard
Per MPI rank memory allocation (min/avg/max) = 3.381 | 3.381 | 3.381 Mbytes
   Step          Temp          PotEng         KinEng         TotEng         Press            Lx             Ly             Lz             Xy             Xz             Yz      
         0   300           -989.61687      12.370196     -977.24667      12363.07       41.7368        19.162         17.761         0              0              0            
       100   219.85485     -978.77931      9.0654917     -969.71381      10362.616      41.7368        19.162         17.761         0              0              0            
       200   279.72936     -976.96203      11.534356     -965.42767      16506.169      41.7368        19.162         17.761         0              0              0            
       300   297.57559     -977.48383      12.270228     -965.2136       13634.843      41.7368        19.162         17.761         0              0              0            
       400   294.98226     -978.07907      12.163294     -965.91577      13665.847      41.7368        19.162         17.761         0              0              0            
       500   306.61645     -977.33053      12.643019     -964.68751      14802.302      41.7368        19.162         17.761         0              0              0            
       600   302.07445     -977.01919      12.455734     -964.56346      14536.335      41.7368        19.162         17.761         0              0              0            
       700   285.55174     -977.06647      11.774436     -965.29204      13111.404      41.7368        19.162         17.761         0              0              0            
       800   310.44502     -977.54916      12.800886     -964.74827      16271.221      41.7368        19.162         17.761         0              0              0            
       900   305.51021     -976.45478      12.597404     -963.85738      12782.626      41.7368        19.162         17.761         0              0              0            
      1000   314.83751     -978.62         12.982006     -965.63799      15274.01       41.7368        19.162         17.761         0              0              0            
Loop time of 42.9694 on 1 procs for 1000 steps with 320 atoms

Performance: 4.021 ns/day, 5.968 hours/ns, 23.272 timesteps/s, 7.447 katom-step/s
99.3% CPU use with 1 MPI tasks x 1 OpenMP threads

MPI task timing breakdown:
Section |  min time  |  avg time  |  max time  |%varavg| %total
---------------------------------------------------------------
Pair    | 42.139     | 42.139     | 42.139     |   0.0 | 98.07
Neigh   | 0.016764   | 0.016764   | 0.016764   |   0.0 |  0.04
Comm    | 0.13232    | 0.13232    | 0.13232    |   0.0 |  0.31
Output  | 0.031316   | 0.031316   | 0.031316   |   0.0 |  0.07
Modify  | 0.58563    | 0.58563    | 0.58563    |   0.0 |  1.36
Other   |            | 0.06429    |            |       |  0.15

Nlocal:            320 ave         320 max         320 min
Histogram: 1 0 0 0 0 0 0 0 0 0
Nghost:           1013 ave        1013 max        1013 min
Histogram: 1 0 0 0 0 0 0 0 0 0
Neighs:              0 ave           0 max           0 min
Histogram: 1 0 0 0 0 0 0 0 0 0
FullNghs:         9004 ave        9004 max        9004 min
Histogram: 1 0 0 0 0 0 0 0 0 0

Total # of neighbors = 9004
Ave neighs/atom = 28.1375
Neighbor list builds = 22
Dangerous builds = 0
unfix           1
unfix           2
write_data      data.NVT
System init for write_data ...
undump          myDump1
reset_timestep  0

# NPT
dump            myDump3 all atom 100 out.1.lammpstrj
fix             1 all plumed plumedfile plumed.dat outfile plumed.log
fix             2 all temp/csvr ${temperature} ${temperature2} $(500.0*dt) ${seed}
fix             2 all temp/csvr 300 ${temperature2} $(500.0*dt) ${seed}
fix             2 all temp/csvr 300 300 $(500.0*dt) ${seed}
fix             2 all temp/csvr 300 300 1 ${seed}
fix             2 all temp/csvr 300 300 1 1428
fix             3 all nph tri ${pressure} ${pressure} $(500.0*dt)
fix             3 all nph tri 1 ${pressure} $(500.0*dt)
fix             3 all nph tri 1 1 $(500.0*dt)
fix             3 all nph tri 1 1 1
fix             4 all momentum 10000 linear 1 1 1
run             50000000
Per MPI rank memory allocation (min/avg/max) = 3.403 | 3.403 | 3.403 Mbytes
   Step          Temp          PotEng         KinEng         TotEng         Press            Lx             Ly             Lz             Xy             Xz             Yz      
         0   314.83751     -978.62         12.982006     -965.63799      15274.01       41.7368        19.162         17.761         0              0              0            
       100   284.10486     -980.80939      11.714776     -969.09461      3462.3211      43.194598      20.053648      18.293644      0.028597461   -0.050419284    0.020854949  
       200   242.08239     -980.29526      9.9820219     -970.31324     -573.94817      43.498397      20.103869      18.432373      0.054342052   -0.021823351    0.012023873  
       300   278.34232     -981.09972      11.477163     -969.62256     -882.5427       43.187265      19.953283      18.340245     -0.060507516   -0.13167944    -0.079161702  
       400   266.14412     -980.77726      10.974183     -969.80308     -1245.4574      43.789615      20.122081      18.400978      0.068595601   -0.028200939   -0.16718485   
       500   267.21095     -980.20599      11.018173     -969.18782     -438.22699      43.996077      19.997399      18.208859      0.044806238    0.032118008   -0.16217378   
       600   269.75619     -980.27737      11.123123     -969.15425      777.01469      43.258589      19.982437      18.348008      0.042875768    0.064564089   -0.078986824  
       700   286.29043     -980.81755      11.804896     -969.01265      483.01002      43.14321       20.171518      18.426248      0.14654414    -0.019218113   -0.099915075  
       800   290.82375     -980.87509      11.991823     -968.88326      753.00557      43.413127      19.964658      18.236828      0.022417266    0.02299761    -0.10429335   
       900   275.063       -979.60359      11.341944     -968.26164     -365.29612      43.112699      20.05094       18.569908      0.030137056    0.071203485    0.036529126  
      1000   290.84311     -980.62654      11.992621     -968.63392     -9.6845138      43.139823      20.278599      18.253075      0.0036344487  -0.017519675    0.089180424  
      1100   291.77349     -980.97201      12.030984     -968.94102      101.50813      43.607039      20.010982      18.29383       0.1174011     -0.017293765    0.14558484   
      1200   275.09989     -980.11319      11.343465     -968.76973     -278.03274      43.68927       19.905376      18.436469      0.12750945    -0.14784479    -0.0047935374 
      1300   280.58937     -980.55061      11.569818     -968.98079     -623.12344      43.442658      20.202174      18.245015     -0.031112255   -0.18163143     0.069294214  
      1400   295.06445     -980.84313      12.166683     -968.67644      575.10556      43.162787      20.054538      18.344973     -0.16142838     0.1454629      0.06572181   
      1500   280.65345     -980.33665      11.572461     -968.76419      716.78947      43.589602      19.780674      18.448475      0.11832045     0.17571272    -0.10277181   
      1600   287.02674     -981.11313      11.835256     -969.27787     -32.964228      43.280815      20.223689      18.238367      0.1157824     -0.0065044438  -0.070405552  
      1700   262.95933     -980.15155      10.842861     -969.30869     -862.51554      43.124893      20.255442      18.343949     -0.069548125   -0.057443574   -0.10338286   
      1800   262.9312      -980.02949      10.841701     -969.18779     -848.7749       43.375958      19.975111      18.498333     -0.19690122    -0.075469369    0.020430285  
      1900   291.37273     -980.53908      12.014459     -968.52462      606.71931      43.407041      20.041056      18.31779       0.11334291     0.13685998    -0.069104763  
      2000   297.79381     -980.09978      12.279226     -967.82055      1260.6639      43.097431      20.128276      18.322264      0.21544039    -0.061012729   -0.023072517  
      2100   288.89019     -979.82967      11.912094     -967.91758      416.94921      43.635363      19.991003      18.340248      0.063684189   -0.18881404     0.13166986   
      2200   292.83054     -979.47512      12.074571     -967.40055     -254.00445      43.967848      20.004666      18.336657     -0.021017319   -0.035616533    0.058289538  
      2300   306.02251     -979.61364      12.618528     -966.99511      297.26308      43.297803      20.184766      18.296742     -0.19982591     0.090735505   -0.22368134   
      2400   297.72804     -979.65976      12.276514     -967.38325      107.84109      43.579917      20.032451      18.358753      0.29900239     0.14371847     0.026759946  
      2500   303.18737     -979.61279      12.501624     -967.11116     -779.15915      43.75613       20.020125      18.391212      0.075357807    0.10366475     0.21442674   
      2600   303.09        -979.52596      12.497609     -967.02835     -448.18965      43.048575      20.119174      18.478428     -0.22688467    -0.098312809    0.073392061  
      2700   327.60754     -980.2535       13.508565     -966.74493     -82.043925      43.316178      20.16896       18.319392      0.012778883   -0.095955754   -0.10556229   
      2800   307.31925     -978.87128      12.671998     -966.19929      45.306893      43.511703      20.026707      18.370524      0.043065262    0.19339388    -0.021255736  
      2900   309.22873     -978.47586      12.750733     -965.72512      477.84299      43.369113      20.088088      18.433489      0.096327761    0.27923464     0.32513271   
      3000   304.05526     -978.46931      12.53741      -965.9319       934.53953      43.892652      20.129417      18.185806      0.060320611    0.14278935     0.11233772   
      3100   312.78693     -979.10612      12.897452     -966.20867      933.11612      44.018996      19.996068      18.193903     -0.065418562   -0.13781212    -0.091266018  
      3200   321.2415      -979.48498      13.246068     -966.23892      310.32874      43.569199      20.067568      18.320283     -0.22762173    -0.14122791    -0.15551442   
      3300   294.92144     -978.53185      12.160787     -966.37106     -1565.6194      43.670846      20.150978      18.465116      0.27296016    -0.0045716031  -0.01588918   
      3400   310.90314     -979.50582      12.819776     -966.68605     -913.4015       43.748481      19.973167      18.428483      0.28008074    -0.025055631    0.11060078   
      3500   319.64292     -980.05428      13.180152     -966.87413      180.48686      43.330442      20.073906      18.379634     -0.17059385    -0.061738041    0.11618981   
      3600   304.92602     -978.41162      12.573315     -965.83831      849.84722      43.250607      20.13596       18.391916     -0.20563177     0.038863864   -0.23263923   
      3700   303.30588     -978.10831      12.506511     -965.6018       1189.5181      43.86277       20.007649      18.244683     -0.27171526    -0.012184564   -0.20270277   
      3800   327.4852      -979.54919      13.50352      -966.04567      393.49192      43.59809       20.084992      18.353336      0.14838852     0.051481796    0.02139897   
      3900   323.40558     -979.65607      13.335301     -966.32077      112.11473      43.215493      20.109013      18.335764      0.22089681    -0.031657747    0.051927674  
      4000   311.55807     -979.32625      12.846781     -966.47947     -1275.8957      43.397168      20.083474      18.594331      0.12090532    -0.070365714    0.069444495  
      4100   307.06773     -979.12217      12.661627     -966.46054     -1420.6097      43.617975      20.157054      18.439324     -0.055038856   -0.15289319    -0.094012859  
      4200   313.54722     -979.58401      12.928802     -966.65521      431.38494      43.807831      19.97851       18.189738     -0.081063287    0.040882142   -0.18865769   
      4300   306.5673      -978.9894       12.640992     -966.34841      932.82956      43.758399      20.063288      18.267021      0.037179745    0.069957894   -0.027879675  
      4400   308.26751     -979.66962      12.711098     -966.95853      575.84036      43.650878      20.047308      18.299544      0.051944843   -0.0046536419   0.14876463   
      4500   301.4148      -979.5466       12.428534     -967.11807     -345.30715      43.673817      20.084729      18.325997      0.053310191    0.12145921     0.17668203   
      4600   301.20014     -979.60995      12.419682     -967.19027     -1108.9943      43.521627      20.155439      18.478088     -0.17083529     0.053397438   -0.22339437   
      4700   294.45082     -979.11438      12.141381     -966.973        57.144254      43.294965      19.977128      18.446105     -0.097296976   -0.15570829    -0.11933679   
      4800   306.47254     -979.32168      12.637085     -966.6846       750.65009      43.475724      20.057957      18.314878      0.10865126    -0.015858641    0.34271894   
      4900   317.56915     -979.09824      13.094642     -966.0036       1309.5446      43.696329      20.11296       18.167584     -0.025568336    0.05513546     0.25704147   
      5000   311.45705     -978.95775      12.842616     -966.11514      273.55007      43.530973      19.999967      18.414503     -0.095154074    0.068237494   -0.11419069   
      5100   317.97194     -978.87076      13.111251     -965.75951     -583.09005      43.100873      20.049253      18.629005     -0.055643374    0.10818134    -0.30128514   
      5200   297.95331     -978.48476      12.285803     -966.19895     -1276.6267      43.434688      20.207267      18.42119       0.064443532   -0.022811261   -0.017920891  
      5300   328.06129     -979.51119      13.527275     -965.98391     -569.51435      43.883551      20.003004      18.310569      0.0090782148  -0.023504481    0.31011096   
      5400   297.03773     -978.46483      12.24805      -966.21678      664.14202      43.946649      20.063782      18.151294     -0.0041309403   0.086919223    0.130146     
      5500   322.01003     -979.53757      13.277757     -966.25982      800.56812      43.505573      20.038491      18.310793     -0.22129622    -0.098102059   -0.16881824   
      5600   300.38688     -978.68577      12.386149     -966.29962      220.56597      43.312637      20.028742      18.544631     -0.11107285     0.094754437   -0.16173496   
      5700   287.6397      -978.43423      11.860532     -966.5737       479.78292      43.515267      20.122629      18.403337     -0.099399881    0.095420657    0.17816405   
      5800   319.335       -979.67221      13.167455     -966.50476      838.5495       43.544404      19.988677      18.336004      0.26301536     0.085824016    0.33309398   
      5900   312.88303     -979.54619      12.901414     -966.64478     -192.45321      43.823418      20.138342      18.176663     -0.0064797704  -0.13564777    -0.053506512  
      6000   306.42982     -980.02953      12.635323     -967.39421     -1082.9291      43.883875      20.262944      18.180303      0.077576191   -0.049964081   -0.05276546   
      6100   311.37751     -980.37196      12.839336     -967.53262      36.289951      43.238978      19.99694       18.418933     -0.047705992   -0.045806165   -0.03036297   
      6200   297.215       -979.9012       12.255359     -967.64584      476.58357      43.051178      20.023193      18.63583      -0.021467895    0.19500273     0.053241619  
      6300   303.51657     -979.57306      12.515198     -967.05786      962.69797      43.349654      20.114761      18.296135      0.073271153    0.10060049     0.10519363   
      6400   298.91104     -979.36903      12.325294     -967.04373      184.17908      44.026068      19.998773      18.120888      0.14161554     0.059508713   -0.19333951   
      6500   303.21669     -979.43337      12.502833     -966.93054     -1653.7245      44.25341       20.144476      18.259247     -0.1150842      0.053483794   -0.14908988   
      6600   316.03817     -979.46039      13.031513     -966.42888     -1430.714       43.541496      20.214317      18.330755     -0.061512186   -0.13828251     0.13526223   
      6700   316.96765     -979.75393      13.06984      -966.68409     -308.96441      43.256666      19.942268      18.611763     -0.094378112    0.026603952    0.029722291  
      6800   305.38963     -979.38817      12.592432     -966.79573     -88.889445      43.663803      20.028705      18.388872      0.0203649      0.21356604     0.098347401  
      6900   330.94815     -980.56097      13.646312     -966.91466      320.92101      43.364392      20.102706      18.257743      0.020592367    0.075629991   -0.028051149  
      7000   311.0204      -979.73807      12.824611     -966.91345     -43.461922      43.482287      20.15345       18.390557      0.041130854    0.013583703   -0.23753588   
      7100   307.99039     -979.32915      12.699672     -966.62948      189.04761      43.961946      20.087355      18.141979     -0.0077960966  -0.097533933    0.028135191  
      7200   322.25944     -979.61303      13.288041     -966.32499     -156.26242      43.711031      19.999461      18.301674     -0.042916759    0.0039040371   0.16317757   
      7300   318.08263     -979.32431      13.115815     -966.20849     -1111.0653      43.365288      20.143394      18.560794     -0.029688437    0.11459514     0.05697709   
      7400   304.63082     -978.89162      12.561143     -966.33048     -301.27714      43.389717      20.11073       18.332967      0.11164634    -0.17385155    -0.12597984   
      7500   309.8691      -978.94583      12.777138     -966.16869      641.82749      43.777251      20.147781      18.172258     -0.061510112   -0.099024523   -0.31033561   
      7600   305.20711     -979.19612      12.584906     -966.61122      2011.7181      43.622315      19.969341      18.21495       0.082994417    0.1084927     -0.018208039  
      7700   303.04409     -979.15786      12.495716     -966.66214      1035.8743      43.184254      20.017915      18.405582     -0.08429749     0.26746328     0.40328974   
      7800   285.16061     -979.36727      11.758309     -967.60896     -40.181803      42.701969      20.235168      18.553356      0.043831444    0.24211776     0.097006199  
      7900   306.83191     -980.53364      12.651903     -967.88174     -606.26336      43.456733      20.091677      18.334553     -0.12730972     0.08298418    -0.12859493   
      8000   283.58329     -979.97586      11.69327      -968.28259     -402.78332      44.191295      19.903346      18.253498     -0.043856323   -0.25233077    -0.27030113   
      8100   289.85533     -980.05891      11.951891     -968.10702      179.54516      43.457353      20.120301      18.29795       0.081101025   -0.10993525     0.0071983038 
      8200   285.97848     -980.04656      11.792033     -968.25452      207.00868      43.279896      20.265242      18.266571      0.099101639    0.10381953     0.25472188   
      8300   293.85706     -980.46455      12.116898     -968.34765      247.37509      43.731216      19.886053      18.402495      0.086136685    0.10202222     0.25374323   
      8400   298.50013     -980.15427      12.30835      -967.84592     -511.43642      43.641223      20.048003      18.37045      -0.11939614     0.079420325    0.017786334  
      8500   298.61117     -980.39496      12.312929     -968.08203     -37.600523      43.182493      20.162976      18.368009     -0.058625946   -0.0012857331  -0.17866653   
      8600   299.10955     -980.03128      12.333479     -967.6978      -214.1119       43.40532       20.210095      18.275147      0.090710301   -0.098693483   -0.099258928  
      8700   291.93122     -979.8139       12.037488     -967.77642      37.205068      43.530254      20.040157      18.344185      0.022949452    0.074071676    0.059856134  
      8800   279.37752     -979.42394      11.519849     -967.90409      220.24192      43.27274       20.085709      18.439242     -0.0040087746   0.06303682     0.13776699   
      8900   296.13784     -980.01679      12.210944     -967.80584      488.37462      43.362515      20.07283       18.329293     -0.14602241    -0.16040583     0.15458097   
      9000   284.66012     -979.57401      11.737672     -967.83634      21.510731      44.027861      19.953984      18.328684      0.01233892    -0.40319879    -0.20243597   
      9100   285.93078     -979.85961      11.790066     -968.06954     -556.30664      43.725252      20.180192      18.269313      0.090510028   -0.10314003    -0.30304896   
      9200   296.3562      -980.3171       12.219947     -968.09715      320.96418      42.882219      20.208219      18.371326     -0.0076984468   0.39780324    -0.088340776  
      9300   280.84824     -979.90066      11.580493     -968.32017      450.77319      43.337454      19.969968      18.494677     -0.1846294      0.2489436      0.078139949  
      9400   283.7934      -980.26682      11.701933     -968.56488      320.62264      43.557175      19.996152      18.336259     -0.15211435     0.0043872162   0.17083132   
      9500   287.18392     -980.56949      11.841738     -968.72775      252.39036      43.088484      20.184408      18.258632     -0.035623569   -0.33074312     0.082575812  
      9600   289.24033     -980.08928      11.926532     -968.16274     -741.2884       43.567979      20.126975      18.383227     -0.045845796   -0.2016784     -0.12154528   
      9700   301.4588      -980.24435      12.430348     -967.81401     -357.45503      44.152324      19.986722      18.154675     -0.023691336   -0.013368493   -0.058195057  
      9800   297.57537     -980.21312      12.270219     -967.9429      -52.908374      43.407559      20.110827      18.337078     -0.14541065     0.25968101    -0.065321356  
      9900   288.86237     -979.80514      11.910947     -967.89419      157.40275      43.246952      20.182878      18.372703      0.069679331    0.10953796    -0.12283474   
     10000   297.26298     -980.43209      12.257338     -968.17475      177.6049       43.916867      20.054857      18.19893       0.061380113   -0.21829555     0.03119427   
     10100   267.79822     -979.58921      11.042388     -968.54682      319.9904       43.639101      20.198603      18.182367     -0.066766479   -0.23839342     0.029008895  
     10200   289.57016     -979.80806      11.940132     -967.86793      12367.712      42.968466      20.46322       18.325751     -0.17313109    -0.14656258    -0.043753057  
     10300   1501.3143     -1063.1752      61.905171     -1001.2701      2118.9398      47.437975      22.596877      17.10125      -0.095914895   -0.28416644    -0.13065624   
     10400   1934.8617     -1102.0237      79.782059     -1022.2416     -1333.785       51.566986      23.351129      16.18028      -0.18179537    -0.25773191    -0.18401771   
     10500   1221.5896     -1090.4898      50.371009     -1040.1188      571.37048      49.324119      23.193327      16.445649     -0.047899458   -0.016820517   -0.020209121  
     10600   1127.6569     -1095.5248      46.49779      -1049.027       760.55134      50.058508      23.723224      16.004594     -0.13118701    -0.14168857     0.15372973   
     10700   1224.3064     -1106.7176      50.483033     -1056.2346      5.4402299      50.656301      23.630554      15.829397      0.11590681     0.0018667866   0.11074833   
     10800   1108.404      -1108.9998      45.703914     -1063.2958      127.88025      50.163369      23.459662      16.166195      0.026307343    0.019246216    0.09467529   
     10900   1042.8598     -1113.0897      43.001268     -1070.0885     -368.6591       50.380818      23.509877      16.057001     -0.20750766    -0.065613254   -0.059517117  
     11000   1025.4727     -1118.7636      42.284325     -1076.4793      429.30782      50.440244      23.428967      15.868827      0.065650322   -0.11429156    -0.076707888  
     11100   900.83488     -1119.474       37.145013     -1082.3289      392.17899      50.350174      23.446949      15.804803     -0.09017094    -0.03415288    -0.079733455  
     11200   868.39591     -1123.0992      35.807425     -1087.2918     -21.415376      50.12302       23.500639      15.933511     -0.02950593     0.0021385622  -0.12200544   
     11300   808.22233     -1125.8638      33.326228     -1092.5376     -1502.6078      49.804869      23.536251      16.166416      0.02351503    -0.033312       0.0049652004 
     11400   770.00398     -1127.7952      31.750334     -1096.0449      1057.0251      49.754344      23.370664      16.134843     -0.15022088     0.047092462    0.064190707  
     11500   766.00939     -1131.6832      31.585621     -1100.0975     -214.1757       49.719744      23.407384      16.095209     -0.033781732    0.088568693    0.0054823753 
     11600   678.73637     -1130.004       27.987006     -1102.017       685.74637      49.829807      23.463827      15.991718     -0.020262149    0.039338833    0.04982122   
     11700   678.90028     -1133.2203      27.993765     -1105.2266     -1129.215       50.139248      23.392424      15.906088      0.11704089    -0.025475227    0.10705188   
     11800   656.87858     -1135.1736      27.085722     -1108.0879      828.9742       50.136262      23.314333      15.836207     -0.00050191013 -0.093682698    0.13238608   
     11900   577.31416     -1135.3515      23.804964     -1111.5465     -1278.5825      50.225296      23.355351      15.839994     -0.047012734    0.0962509     -0.0024239095 
     12000   545.27965     -1136.9529      22.484054     -1114.4689      1318.7981      49.885877      23.400755      15.86945      -0.023093375   -0.021453674    0.10453708   
     12100   534.28802     -1138.3274      22.030825     -1116.2966     -1220.8205      49.871961      23.371708      15.984098      0.013707706    0.087703576   -0.073508076  
     12200   512.5806      -1138.8461      21.135741     -1117.7104      485.46011      49.9708        23.276276      15.952834      0.081928645   -0.027110136   -0.13725287   
     12300   469.15878     -1138.5421      19.345287     -1119.1968     -182.14937      49.806106      23.450336      16.031256     -0.19367442     0.0096622021  -0.10851079   
     12400   495.45441     -1140.5496      20.42956      -1120.1201     -129.33871      49.709169      23.417874      16.013131      0.13373455    -0.0039675497  -0.015805063  
     12500   459.94009     -1140.3875      18.965163     -1121.4224      649.34332      49.773566      23.266835      15.947232      0.056506053   -0.069283581    0.10738234   
     12600   445.33288     -1140.8439      18.36285      -1122.4811     -627.32153      50.102832      23.18481       15.91348      -0.0037122123   0.0048658117   0.21427497   
     12700   426.3754      -1141.4212      17.581158     -1123.8401      373.54453      50.151863      23.297483      15.836327      0.042512588   -0.021742479    0.033027056  
     12800   434.78441     -1142.9552      17.927894     -1125.0273      1.6020726      50.089597      23.295946      15.85865      -0.00073170651  0.046518111   -0.024204409  
     12900   399.33232     -1142.18        16.466064     -1125.714      -416.00137      50.020257      23.311696      15.842821     -0.031219244   -0.037002403   -0.037575747  
     13000   391.04828     -1143.19        16.12448      -1127.0655      742.98442      50.168279      23.280559      15.793536     -0.11135464     0.053881729   -0.17893286   
     13100   395.02652     -1144.0303      16.288518     -1127.7418     -1089.928       50.152953      23.221513      15.901487     -0.00052968842 -0.00096077927 -0.012263693  
     13200   391.2462      -1144.6439      16.132641     -1128.5112      1353.7851      49.857015      23.219907      15.875468      0.14586782     0.028274826    0.12310714   
     13300   353.94671     -1143.5778      14.594634     -1128.9832     -272.45685      49.741558      23.320394      16.048955      0.030829868    0.056699778   -0.057182375  
     13400   358.25771     -1144.3691      14.772393     -1129.5967     -621.34029      49.889065      23.356391      15.988203     -0.020637684   -0.029422907   -0.069352474  
     13500   368.2722      -1145.1276      15.185331     -1129.9423      925.04774      49.866439      23.282741      16.016431      0.062760947   -0.046716272    0.042557555  
     13600   324.66115     -1143.6525      13.387073     -1130.2654     -532.38192      49.698806      23.321915      15.998023     -0.068599402    0.073811762    0.13577715   
     13700   344.58186     -1144.645       14.208484     -1130.4365      257.50804      49.70001       23.354453      15.946659      0.057970448   -0.045171874    0.06064767   
     13800   349.8566      -1144.9019      14.425982     -1130.4759      466.67583      49.750578      23.344933      15.996493     -0.18027535     0.11255335    -0.20044261   
     13900   345.09482     -1145.0995      14.229635     -1130.8699     -1247.243       50.095435      23.314401      15.840335      0.20670896    -0.06983936    -0.065945076  
     14000   334.87099     -1144.7264      13.808066     -1130.9183      1185.5608      49.809769      23.292409      15.888684     -0.0069525366   0.013348215   -0.21381226   
     14100   332.59605     -1144.5363      13.714261     -1130.822      -353.48034      50.024109      23.31311       15.741543      0.085255418    0.0051809847  -0.17699427   
     14200   329.42314     -1144.9485      13.583429     -1131.3651     -231.78175      50.089199      23.235687      15.818749     -0.22252       -0.0082657455   0.1141901    
     14300   323.81948     -1145.4031      13.352368     -1132.0507      999.94469      50.107982      23.177008      15.817028      0.24333087     0.0012959544   0.077984468  
     14400   321.69891     -1145.3052      13.264928     -1132.0403     -1246.1415      50.156375      23.229277      15.899705      0.017818864   -0.0021740833   0.14686759   
     14500   313.1768      -1144.7573      12.913528     -1131.8437      933.96916      49.938627      23.276958      15.940311     -0.017882972    0.0067770787   0.073757924  
     14600   306.27751     -1144.837       12.629043     -1132.208      -295.45366      49.903458      23.27716       15.952739     -0.1681194      0.052849229   -0.073725874  
     14700   325.2882      -1145.8506      13.412929     -1132.4376     -837.30454      49.815601      23.265128      16.02578       0.12231455    -0.037586231   -0.21899913   
     14800   302.35146     -1144.9343      12.467156     -1132.4671      651.67309      49.716315      23.304298      16.055131     -0.0058900764  -0.072594942   -0.19336736   
     14900   308.42279     -1145.984       12.717501     -1133.2665      251.47589      49.539909      23.32455       16.117408     -0.042717261    0.070043724   -0.11298311   
     15000   298.01863     -1145.2156      12.288496     -1132.9271     -1055.957       49.6077        23.380655      16.10791      -0.13507073    -0.075952504    0.27780932   
     15100   297.92827     -1145.6777      12.28477      -1133.3929      595.55814      49.767769      23.280318      15.974305      0.22825617     0.035387493    0.093238901  
     15200   278.50151     -1145.3507      11.483727     -1133.8669     -261.19093      49.686867      23.296752      16.072658     -0.15172171    -0.0046101955   0.026229076  
     15300   302.74497     -1146.0024      12.483382     -1133.519      -1031.6671      49.998966      23.299935      15.912245      0.043839922    0.076450389   -0.19244427   
     15400   293.79477     -1146.0955      12.114329     -1133.9812      907.77047      49.851392      23.218456      15.920336     -0.04444464    -0.029455033   -0.15849201   
     15500   275.85612     -1145.5449      11.374647     -1134.1703     -797.31854      50.190951      23.242377      15.781403      0.16519927     0.026650575   -0.023004362  
     15600   296.60551     -1146.1622      12.230228     -1133.932       370.41168      50.205367      23.162274      15.793961     -0.037419756    0.016873115    0.054881785  
     15700   292.28348     -1146.2462      12.052013     -1134.1942      344.36667      50.189123      23.164752      15.820576     -0.0042287637  -0.0018032166   0.042480251  
     15800   293.67822     -1146.5681      12.109524     -1134.4586     -850.95055      50.179391      23.259465      15.763008     -0.13142381     0.047489736    0.10138796   
     15900   271.70601     -1145.0025      11.203522     -1133.799       2007.1297      49.782703      23.215495      15.87906       0.28336882     0.018877051   -0.18704585   
     16000   294.79521     -1145.9225      12.155582     -1133.7669     -1358.3175      50.112814      23.274666      15.830448     -0.13775431     0.015392715   -0.2417471    
     16100   277.633       -1145.6393      11.447915     -1134.1914     -424.71827      49.936282      23.236707      15.916766      0.017679027   -0.0062591075  -0.20560663   
     16200   300.22843     -1146.4905      12.379615     -1134.1109      1786.4964      49.809489      23.247458      15.884865      0.055372042    0.057050203    0.073741793  
     16300   290.91575     -1146.1354      11.995616     -1134.1398     -2582.2235      49.949064      23.349474      15.939544      0.1508387      0.0080142375   0.30157499   
     16400   285.21309     -1145.5313      11.760473     -1133.7708      2090.5354      49.819094      23.186418      15.870164     -0.092883994   -0.016229142    0.24600886   
     16500   313.373       -1146.6462      12.921618     -1133.7246      404.06626      49.965856      23.204092      15.880579      0.044968901    0.022601125    0.074469563  
     16600   302.25998     -1145.6764      12.463384     -1133.213      -1870.7982      50.113295      23.264555      15.880673     -0.051037465    0.058868445   -0.18317613   
     16700   301.71566     -1145.5469      12.440939     -1133.106       2634.2629      49.842745      23.236097      15.808206      0.072498255    0.0033166609  -0.33880191   
     16800   302.74855     -1145.343       12.483529     -1132.8595     -1156.262       49.805798      23.329283      15.901948     -0.12989044     0.0090675153  -0.085002923  
     16900   292.17341     -1145.073       12.047474     -1133.0255     -744.4955       49.938536      23.292296      15.908032      0.047196693    0.031775314    0.12105679   
     17000   276.27201     -1145.0061      11.391796     -1133.6143      1553.361       49.884077      23.276314      15.880146      0.090660236   -0.038122612    0.16253244   
     17100   305.82103     -1146.0547      12.61022      -1133.4445     -1577.9773      49.865961      23.272425      15.938004     -0.0043266658   0.057397581    0.094782975  
     17200   299.69186     -1145.662       12.35749      -1133.3045      799.26154      49.998733      23.231442      15.891367      0.018775885   -0.082393145   -0.17518956   
     17300   290.49538     -1145.2926      11.978283     -1133.3143      657.93992      49.898925      23.200833      15.939719      0.087177629    0.096437816   -0.32085076   
     17400   313.56362     -1145.8649      12.929478     -1132.9354     -1038.3933      49.986322      23.224405      15.924092     -0.053332499    0.025925929   -0.038353181  
     17500   293.16116     -1145.0813      12.088203     -1132.9931      1346.7134      49.975102      23.201833      15.851908      0.010836981   -0.05135443     0.11878276   
     17600   306.72337     -1145.368       12.647427     -1132.7205     -719.40275      49.923937      23.19471       15.961802     -0.076774788    0.089821312    0.32752402   
     17700   306.57757     -1145.6338      12.641415     -1132.9923     -220.82609      49.917248      23.311862      15.894407     -0.025055028   -0.12691482     0.18249613   
     17800   293.38944     -1145.2004      12.097616     -1133.1028      577.17336      49.807237      23.335216      15.89487       0.11823951     0.0694