ITEM: TIMESTEP
0
ITEM: NUMBER OF ATOMS
320
ITEM: BOX BOUNDS xy xz yz pp pp pp
0.0000000000000000e+00 4.1736800000000002e+01 0.0000000000000000e+00
0.0000000000000000e+00 1.9161999999999999e+01 0.0000000000000000e+00
0.0000000000000000e+00 1.7760999999999999e+01 0.0000000000000000e+00
ITEM: ATOMS id type xs ys zs
2 1 0.0269074 0.183262 0.159637
260 3 0.159634 0.0603857 0.067233
74 2 0.117721 0.194557 0.12472
18 1 0.263505 0.191835 0.165943
276 3 0.413264 0.062963 0.0519994
122 2 0.364492 0.187466 0.105489
170 2 0.61822 0.197877 0.114848
292 3 0.663626 0.0698985 0.0666727
163 2 0.713178 0.186191 0.00609598
50 1 0.773281 0.192802 0.178299
218 2 0.865466 0.180093 0.115405
308 3 0.914808 0.0509688 0.0870738
211 2 0.959136 0.184603 0.0150711
264 3 0.162119 0.326422 0.0662181
280 3 0.410482 0.310625 0.0521849
34 1 0.521815 0.204828 0.163446
296 3 0.668122 0.320398 0.0500397
221 2 0.793328 0.323345 0.00205664
312 3 0.914463 0.307545 0.0707362
6 1 0.0176224 0.423991 0.175512
89 2 0.0379093 0.55636 0.00600856
268 3 0.166672 0.564675 0.0668486
86 2 0.115971 0.441743 0.126281
22 1 0.279718 0.444769 0.176336
137 2 0.290922 0.563462 0.01956
134 2 0.367103 0.435707 0.109087
284 3 0.41536 0.558232 0.0640137
38 1 0.515354 0.433431 0.159026
185 2 0.542352 0.562793 0.0148449
182 2 0.612844 0.427655 0.107111
300 3 0.657215 0.565862 0.0739094
54 1 0.770279 0.439718 0.188436
230 2 0.867047 0.429978 0.116396
316 3 0.917535 0.545436 0.057545
10 1 0.014977 0.683045 0.16567
98 2 0.110925 0.667465 0.107103
91 2 0.207317 0.692285 0.000850066
26 1 0.274324 0.703833 0.170575
146 2 0.371814 0.682073 0.1256
42 1 0.524346 0.678519 0.183511
139 2 0.456777 0.688562 0.000840618
194 2 0.618113 0.691967 0.121929
187 2 0.706232 0.687006 0.00497174
58 1 0.768116 0.686782 0.164495
242 2 0.871455 0.663233 0.106832
235 2 0.960961 0.674234 0.00222818
14 1 0.0217441 0.942302 0.156576
101 2 0.0370694 0.813365 0.00231531
272 3 0.160971 0.805696 0.0663917
110 2 0.109248 0.933137 0.115454
30 1 0.271512 0.948915 0.183612
103 2 0.203909 0.934626 0.00846394
149 2 0.285856 0.822709 0.022571
158 2 0.370675 0.948398 0.113905
288 3 0.415153 0.815904 0.07026
46 1 0.520632 0.954264 0.176913
197 2 0.539607 0.810551 0.00252325
151 2 0.461734 0.937454 0.0167571
206 2 0.619566 0.935622 0.116542
304 3 0.662001 0.804133 0.0527312
62 1 0.760795 0.945985 0.166545
245 2 0.792449 0.809612 0.0155238
254 2 0.870484 0.92654 0.112279
320 3 0.916209 0.802198 0.0598521
247 2 0.959921 0.938369 0.00176705
69 2 0.0743311 0.0600659 0.295281
3 1 0.146534 0.188638 0.333293
72 2 0.199414 0.0725368 0.210653
75 2 0.242445 0.189725 0.376137
117 2 0.326416 0.0556236 0.276627
19 1 0.397037 0.183272 0.31458
120 2 0.44403 0.0848731 0.208851
123 2 0.495844 0.189051 0.379345
165 2 0.573028 0.0659075 0.286593
35 1 0.648136 0.188947 0.316974
168 2 0.691709 0.0519415 0.220187
171 2 0.737415 0.180493 0.389752
51 1 0.894192 0.18838 0.325318
213 2 0.828798 0.059866 0.282412
216 2 0.952875 0.0669791 0.236587
219 2 0.992927 0.193754 0.397093
81 2 0.0703498 0.322087 0.293364
84 2 0.205491 0.32204 0.207845
129 2 0.326604 0.30403 0.289234
132 2 0.448091 0.308526 0.209624
177 2 0.581028 0.321428 0.273206
180 2 0.705087 0.302415 0.211052
225 2 0.823656 0.307774 0.293739
228 2 0.950923 0.327614 0.208837
93 2 0.0772964 0.568533 0.283031
7 1 0.14403 0.433153 0.355084
87 2 0.243647 0.445434 0.380854
96 2 0.206519 0.560331 0.212672
141 2 0.326601 0.567221 0.295098
23 1 0.398764 0.433845 0.321571
144 2 0.450898 0.555382 0.225507
135 2 0.491797 0.444776 0.394184
189 2 0.577125 0.549173 0.282045
39 1 0.653254 0.433872 0.308686
192 2 0.700362 0.576033 0.217595
183 2 0.741176 0.437284 0.38389
55 1 0.895224 0.455734 0.330217
237 2 0.822392 0.575974 0.284129
231 2 0.989108 0.416505 0.386625
240 2 0.951363 0.564697 0.206821
11 1 0.149563 0.687842 0.326827
99 2 0.239614 0.701178 0.390727
27 1 0.403878 0.68866 0.335446
147 2 0.492695 0.696066 0.380085
43 1 0.642681 0.685276 0.339483
204 2 0.693168 0.799258 0.205034
195 2 0.741246 0.682856 0.388825
59 1 0.892046 0.698706 0.320502
243 2 0.985771 0.676957 0.389045
105 2 0.074596 0.815422 0.273578
15 1 0.145319 0.942677 0.340845
108 2 0.198004 0.829865 0.208846
111 2 0.240734 0.928776 0.373104
153 2 0.324517 0.810313 0.283973
31 1 0.397418 0.919992 0.323087
156 2 0.456105 0.813324 0.209805
159 2 0.493833 0.938966 0.383307
201 2 0.570751 0.821796 0.278293
47 1 0.643195 0.920124 0.332151
207 2 0.736379 0.937606 0.359167
249 2 0.816466 0.814188 0.262163
63 1 0.886023 0.923659 0.32837
255 2 0.993269 0.923659 0.389928
252 2 0.951988 0.80658 0.209494
257 3 0.0381965 0.0575741 0.440354
66 2 0.0794339 0.182699 0.50315
68 2 0.165428 0.0753743 0.498886
259 3 0.21146 0.184721 0.554333
121 2 0.257768 0.0504788 0.599538
273 3 0.290046 0.061251 0.435815
114 2 0.327469 0.193654 0.500025
116 2 0.4186 0.0774862 0.485883
275 3 0.465835 0.194995 0.557447
289 3 0.538152 0.0655429 0.435016
162 2 0.585104 0.185257 0.49604
164 2 0.66952 0.0649743 0.518572
291 3 0.712789 0.189161 0.572197
305 3 0.786474 0.0602529 0.427498
210 2 0.834207 0.177949 0.491617
307 3 0.9563 0.177099 0.566987
212 2 0.917073 0.0613262 0.487568
261 3 0.0381183 0.312668 0.44664
80 2 0.168668 0.312746 0.506471
277 3 0.286927 0.314188 0.44048
128 2 0.415324 0.310996 0.493288
293 3 0.547224 0.323203 0.428141
176 2 0.662122 0.306563 0.503801
309 3 0.790633 0.309272 0.446229
224 2 0.916283 0.297675 0.509296
265 3 0.0356066 0.548998 0.433287
78 2 0.082012 0.445236 0.511219
92 2 0.172736 0.561958 0.500489
263 3 0.216336 0.435885 0.565079
281 3 0.289463 0.563829 0.453143
126 2 0.342286 0.452662 0.494253
140 2 0.413995 0.564952 0.504366
279 3 0.462751 0.44493 0.562494
297 3 0.543403 0.568224 0.450925
174 2 0.586462 0.446875 0.489126
188 2 0.666908 0.567997 0.49605
295 3 0.710518 0.426331 0.559295
313 3 0.791002 0.56374 0.434799
222 2 0.836553 0.432341 0.503237
236 2 0.905904 0.565469 0.504324
311 3 0.961386 0.427318 0.559703
90 2 0.0889192 0.668862 0.490953
269 3 0.0429745 0.797403 0.429227
267 3 0.209065 0.685811 0.577842
138 2 0.333003 0.684378 0.510916
283 3 0.455883 0.697582 0.545126
186 2 0.588059 0.698188 0.502625
299 3 0.708624 0.686548 0.573653
234 2 0.82888 0.701277 0.491855
315 3 0.95448 0.68069 0.564712
102 2 0.0842122 0.922799 0.499124
109 2 0.00788751 0.811401 0.598778
104 2 0.17092 0.815188 0.489293
271 3 0.211084 0.928697 0.551061
150 2 0.332208 0.94971 0.510209
285 3 0.288213 0.812344 0.431595
152 2 0.416885 0.825391 0.496523
287 3 0.458473 0.950168 0.544889
301 3 0.539158 0.807717 0.437306
198 2 0.578313 0.935095 0.521525
200 2 0.665621 0.827374 0.505526
303 3 0.70656 0.941071 0.579778
317 3 0.781924 0.814216 0.419399
246 2 0.833648 0.930018 0.493858
319 3 0.963613 0.937138 0.554686
248 2 0.917473 0.801902 0.495155
70 2 0.0519862 0.172612 0.776491
73 2 0.0103477 0.0521184 0.613596
1 1 0.105211 0.0580746 0.660639
71 2 0.174968 0.193632 0.708911
17 1 0.355273 0.0770372 0.674734
118 2 0.297372 0.185187 0.774387
119 2 0.429137 0.19127 0.703148
169 2 0.510067 0.0698679 0.61177
33 1 0.602637 0.0551515 0.687061
166 2 0.546782 0.177661 0.790441
167 2 0.678289 0.192458 0.718458
214 2 0.80044 0.199477 0.787514
217 2 0.762441 0.0717323 0.623909
49 1 0.851886 0.0543211 0.668663
215 2 0.917985 0.156232 0.716211
85 2 0.012058 0.31144 0.61338
5 1 0.102672 0.315309 0.681225
133 2 0.263514 0.318248 0.613552
21 1 0.355818 0.316764 0.669066
181 2 0.515517 0.315099 0.601546
37 1 0.605816 0.298145 0.67006
229 2 0.761394 0.314024 0.633727
53 1 0.859169 0.290024 0.67022
82 2 0.0564496 0.43719 0.795955
97 2 0.0111862 0.552905 0.607154
9 1 0.10811 0.549217 0.676646
83 2 0.177489 0.427454 0.717128
145 2 0.260146 0.565225 0.624401
25 1 0.358195 0.561387 0.672177
130 2 0.30308 0.437594 0.792043
131 2 0.428543 0.452484 0.718262
193 2 0.507131 0.571213 0.617309
41 1 0.607323 0.570207 0.660568
178 2 0.547962 0.438 0.773248
179 2 0.67523 0.426145 0.704895
226 2 0.799056 0.428655 0.795834
241 2 0.759819 0.558743 0.600085
57 1 0.857794 0.548933 0.674016
227 2 0.92654 0.43253 0.714251
94 2 0.0514085 0.688771 0.772404
95 2 0.172067 0.691949 0.728358
13 1 0.108318 0.799049 0.668721
143 2 0.428755 0.703768 0.700834
190 2 0.550186 0.69188 0.799286
191 2 0.67495 0.690694 0.714628
238 2 0.803972 0.684871 0.776196
239 2 0.926162 0.67164 0.723026
106 2 0.0510817 0.933869 0.788456
107 2 0.172014 0.938383 0.695402
157 2 0.263567 0.802657 0.612899
29 1 0.350504 0.819744 0.67675
154 2 0.302555 0.938586 0.794277
155 2 0.420919 0.946772 0.707682
205 2 0.508198 0.819661 0.603721
45 1 0.59762 0.816852 0.683884
202 2 0.546174 0.922813 0.79127
203 2 0.666217 0.935375 0.72879
250 2 0.80038 0.930051 0.781715
253 2 0.760678 0.820695 0.601573
61 1 0.852481 0.809265 0.663775
251 2 0.924142 0.939599 0.706179
65 2 0.042267 0.0713761 0.992601
258 3 0.0881164 0.183141 0.924349
76 2 0.137474 0.0599903 0.876418
4 1 0.226138 0.0619979 0.828792
67 2 0.206029 0.184653 0.995983
113 2 0.286703 0.0707267 0.995999
274 3 0.33272 0.19436 0.926795
124 2 0.384427 0.0638197 0.883582
161 2 0.539583 0.0673353 0.996559
20 1 0.477507 0.0575141 0.839859
115 2 0.457484 0.196318 0.993984
172 2 0.633032 0.0553604 0.883771
290 3 0.584112 0.196027 0.935603
209 2 0.79477 0.0528533 0.989906
36 1 0.73408 0.0812391 0.822811
306 3 0.83785 0.191287 0.939928
220 2 0.88553 0.0673355 0.901802
52 1 0.978906 0.0654498 0.83547
77 2 0.0411815 0.299379 0.989812
88 2 0.134282 0.308948 0.884954
8 1 0.22644 0.310432 0.834079
125 2 0.292135 0.324856 0.998945
136 2 0.379562 0.315629 0.884033
173 2 0.539459 0.314011 0.996984
24 1 0.483217 0.304742 0.82432
184 2 0.62719 0.322973 0.881098
40 1 0.732278 0.319407 0.848206
232 2 0.887679 0.312432 0.876628
56 1 0.980234 0.305181 0.834772
262 3 0.0851844 0.4269 0.951232
100 2 0.129896 0.566359 0.883854
12 1 0.224424 0.563412 0.837119
79 2 0.212955 0.439762 0.995745
278 3 0.337184 0.451437 0.938852
148 2 0.385523 0.571021 0.896635
28 1 0.480239 0.57819 0.82961
127 2 0.461732 0.43033 0.989651
294 3 0.582842 0.448651 0.934033
196 2 0.629651 0.566148 0.876769
175 2 0.711239 0.452128 0.996752
233 2 0.791489 0.558532 0.994016
44 1 0.729221 0.567497 0.803929
310 3 0.840031 0.439062 0.939961
244 2 0.886097 0.571774 0.883966
60 1 0.982783 0.545412 0.831943
223 2 0.964521 0.426876 0.993233
266 3 0.0774867 0.688204 0.933873
142 2 0.304482 0.699943 0.805947
282 3 0.332071 0.702685 0.963825
298 3 0.585408 0.692001 0.951215
314 3 0.833122 0.688691 0.935219
270 3 0.0896119 0.948568 0.932069
112 2 0.128833 0.809159 0.888527
16 1 0.233178 0.812423 0.826136
286 3 0.333681 0.940686 0.948593
160 2 0.376861 0.810112 0.889455
32 1 0.474294 0.81651 0.832583
302 3 0.583516 0.937322 0.934063
208 2 0.630017 0.807925 0.883943
199 2 0.706179 0.93549 0.990425
48 1 0.739507 0.800076 0.838221
318 3 0.838311 0.932301 0.931552
256 2 0.88506 0.808815 0.886763
64 1 0.972921 0.815365 0.82378
ITEM: TIMESTEP
100
ITEM: NUMBER OF ATOMS
320
ITEM: BOX BOUNDS xy xz yz pp pp pp
-7.7931847020636769e-01 4.2494296646522891e+01 2.8597460706206761e-02
-4.4582386991725720e-01 1.9628678818552590e+01 -5.0419284389702362e-02
-2.6632212765649754e-01 1.8027322127656536e+01 2.0854948635356099e-02
ITEM: ATOMS id type xs ys zs
2 1 0.0173297 0.198024 0.19423
260 3 0.161383 0.0610609 0.0745625
74 2 0.11561 0.184556 0.126095
18 1 0.273478 0.19681 0.150834
276 3 0.418656 0.0804623 0.0635296
122 2 0.365159 0.189151 0.0835273
170 2 0.617851 0.187813 0.0871009
292 3 0.664908 0.046371 0.0461913
163 2 0.710385 0.209539 0.988953
50 1 0.769285 0.182719 0.172327
218 2 0.864503 0.182684 0.122122
308 3 0.926673 0.0562664 0.0770549
211 2 0.960602 0.177993 0.0238747
264 3 0.164451 0.312695 0.0817999
280 3 0.415145 0.322014 0.0515461
34 1 0.522087 0.197209 0.164674
296 3 0.660515 0.309656 0.0468435
221 2 0.797837 0.312895 0.00331222
312 3 0.906419 0.299785 0.0868344
6 1 0.0232883 0.435465 0.147073
89 2 0.0391629 0.557602 0.991717
268 3 0.17132 0.562424 0.0766072
86 2 0.119524 0.445004 0.124594
22 1 0.275707 0.438676 0.183034
137 2 0.287319 0.56478 0.00216077
134 2 0.367065 0.449735 0.116871
284 3 0.414983 0.567381 0.0641593
38 1 0.519759 0.426901 0.192543
185 2 0.544777 0.562249 0.00910648
182 2 0.614519 0.43334 0.0865092
300 3 0.66429 0.564927 0.0510811
54 1 0.768999 0.444449 0.172492
230 2 0.865808 0.430291 0.121782
316 3 0.916511 0.543561 0.0608803
10 1 0.0246076 0.684504 0.182226
98 2 0.120716 0.689779 0.104874
91 2 0.21148 0.681308 0.00663898
26 1 0.272567 0.677339 0.177747
146 2 0.367279 0.68669 0.126538
42 1 0.520284 0.702806 0.156631
139 2 0.457378 0.697652 0.00798053
194 2 0.613758 0.701088 0.127068
187 2 0.705182 0.676152 0.98899
58 1 0.768934 0.686345 0.148415
242 2 0.86855 0.695611 0.0996204
235 2 0.958548 0.674635 0.00585342
14 1 0.0179648 0.943575 0.180651
101 2 0.0461137 0.819622 0.991671
272 3 0.164149 0.802996 0.0541634
110 2 0.122139 0.936431 0.114103
30 1 0.264293 0.944208 0.173134
103 2 0.201119 0.941154 0.00230203
149 2 0.294324 0.821703 0.999212
158 2 0.365581 0.945784 0.123449
288 3 0.415224 0.813337 0.0798436
46 1 0.519063 0.9514 0.172693
197 2 0.539288 0.81593 0.991894
151 2 0.451137 0.931293 0.995457
206 2 0.618213 0.941447 0.0998081
304 3 0.664624 0.822266 0.0565911
62 1 0.764719 0.930369 0.158663
245 2 0.800706 0.825973 0.984486
254 2 0.873677 0.92324 0.110601
320 3 0.92019 0.799699 0.0651587
247 2 0.960409 0.93204 0.00145905
69 2 0.0763269 0.0598516 0.299354
3 1 0.139829 0.192139 0.334661
72 2 0.201095 0.0669445 0.208497
75 2 0.247288 0.189796 0.371527
117 2 0.326233 0.0701796 0.288781
19 1 0.395606 0.207233 0.346682
120 2 0.457645 0.0862226 0.1957
123 2 0.504303 0.198241 0.370513
165 2 0.580444 0.0691423 0.291853
35 1 0.651319 0.194075 0.326535
168 2 0.697615 0.0631005 0.200146
171 2 0.740003 0.179509 0.391672
51 1 0.89381 0.175465 0.34297
213 2 0.818179 0.0532759 0.283913
216 2 0.948203 0.0453563 0.231859
219 2 0.99596 0.173423 0.39265
81 2 0.071007 0.308169 0.287848
84 2 0.204033 0.342628 0.213044
129 2 0.326964 0.303766 0.287404
132 2 0.445813 0.313309 0.19924
177 2 0.58129 0.304416 0.28852
180 2 0.699127 0.317369 0.18536
225 2 0.829326 0.32692 0.303506
228 2 0.94095 0.299 0.231105
93 2 0.0704561 0.556866 0.297021
7 1 0.138175 0.434038 0.327412
87 2 0.243296 0.445678 0.390974
96 2 0.203874 0.582243 0.217806
141 2 0.324209 0.561754 0.301798
23 1 0.395316 0.433008 0.313261
144 2 0.44727 0.563078 0.206228
135 2 0.498517 0.44832 0.386037
189 2 0.573227 0.56555 0.299785
39 1 0.652985 0.425203 0.312173
192 2 0.699532 0.558893 0.196563
183 2 0.738439 0.441776 0.397779
55 1 0.895359 0.433484 0.335761
237 2 0.823204 0.561901 0.285074
231 2 0.995 0.456557 0.385661
240 2 0.951216 0.542254 0.205383
11 1 0.14356 0.692505 0.307788
99 2 0.250537 0.696634 0.400681
27 1 0.392063 0.663209 0.351906
147 2 0.490709 0.682065 0.400952
43 1 0.647443 0.691175 0.340151
204 2 0.699164 0.818896 0.196856
195 2 0.734868 0.68697 0.379008
59 1 0.899736 0.67106 0.31733
243 2 0.990335 0.666791 0.390186
105 2 0.0717365 0.801085 0.284797
15 1 0.147535 0.933733 0.320065
108 2 0.19747 0.809539 0.210379
111 2 0.24 0.935841 0.40456
153 2 0.324056 0.81459 0.282031
31 1 0.392723 0.926505 0.323534
156 2 0.454194 0.818212 0.220892
159 2 0.48734 0.939986 0.381799
201 2 0.569896 0.813429 0.29284
47 1 0.639891 0.947288 0.317141
207 2 0.731825 0.941375 0.410047
249 2 0.811968 0.806823 0.277518
63 1 0.887415 0.928017 0.318627
255 2 0.994511 0.942807 0.396244
252 2 0.950471 0.811201 0.21801
257 3 0.0438503 0.0464756 0.448519
66 2 0.0847118 0.182632 0.515083
68 2 0.169882 0.051191 0.502051
259 3 0.21175 0.180994 0.573969
121 2 0.255179 0.068802 0.612563
273 3 0.291389 0.0687917 0.42314
114 2 0.333157 0.178011 0.49402
116 2 0.425033 0.0700688 0.477853
275 3 0.466226 0.199147 0.543271
289 3 0.543875 0.0583068 0.433718
162 2 0.582031 0.188014 0.488774
164 2 0.657424 0.0603905 0.501238
291 3 0.713078 0.190611 0.566565
305 3 0.781028 0.0450709 0.433526
210 2 0.827394 0.179927 0.480716
307 3 0.964607 0.161977 0.564626
212 2 0.920589 0.0488126 0.500181
261 3 0.0376568 0.303244 0.439649
80 2 0.16756 0.316672 0.496746
277 3 0.288562 0.311268 0.427163
128 2 0.423348 0.322248 0.497569
293 3 0.544484 0.310844 0.424781
176 2 0.670725 0.308343 0.516599
309 3 0.794914 0.307847 0.436188
224 2 0.919381 0.292933 0.50598
265 3 0.0439588 0.566969 0.446947
78 2 0.0805555 0.423674 0.506673
92 2 0.169754 0.55875 0.509935
263 3 0.210387 0.433263 0.552564
281 3 0.29368 0.568105 0.44313
126 2 0.327513 0.434283 0.492042
140 2 0.417288 0.567561 0.518893
279 3 0.460018 0.445775 0.559365
297 3 0.542623 0.562331 0.443545
174 2 0.589825 0.445584 0.513892
188 2 0.666821 0.563936 0.511574
295 3 0.70998 0.433004 0.567315
313 3 0.786408 0.56534 0.434963
222 2 0.829207 0.433061 0.496407
236 2 0.920387 0.550434 0.505455
311 3 0.963585 0.431702 0.56659
90 2 0.0874189 0.686512 0.484207
269 3 0.0376785 0.788187 0.426393
267 3 0.213131 0.682178 0.580036
138 2 0.335423 0.691866 0.507273
283 3 0.458904 0.700464 0.568615
186 2 0.584679 0.714161 0.512071
299 3 0.712127 0.683983 0.548484
234 2 0.830557 0.687261 0.473637
315 3 0.959042 0.683562 0.55931
102 2 0.0776532 0.917701 0.493199
109 2 0.00398082 0.794832 0.60158
104 2 0.162569 0.802212 0.500771
271 3 0.210426 0.932939 0.564727
150 2 0.334045 0.944634 0.503502
285 3 0.297903 0.816987 0.440202
152 2 0.411544 0.810181 0.496574
287 3 0.463887 0.95925 0.556499
301 3 0.537232 0.825691 0.437335
198 2 0.576489 0.940992 0.504947
200 2 0.661545 0.837865 0.505302
303 3 0.70076 0.946067 0.571199
317 3 0.785686 0.810363 0.428177
246 2 0.82746 0.925437 0.492879
319 3 0.958462 0.925361 0.570122
248 2 0.916158 0.81108 0.497067
70 2 0.0488031 0.179643 0.785427
73 2 0.00755859 0.046695 0.626247
1 1 0.103427 0.055615 0.675196
71 2 0.182108 0.196781 0.717363
17 1 0.357105 0.0696177 0.674582
118 2 0.291125 0.189638 0.787971
119 2 0.432244 0.194828 0.698257
169 2 0.508269 0.066967 0.610836
33 1 0.601683 0.0635606 0.657035
166 2 0.549541 0.165133 0.772715
167 2 0.678901 0.180198 0.716634
214 2 0.808894 0.196464 0.792811
217 2 0.764625 0.0648462 0.592827
49 1 0.853168 0.0430648 0.666495
215 2 0.929801 0.167226 0.707231
85 2 0.00379707 0.305459 0.611391
5 1 0.105673 0.300214 0.684452
133 2 0.25995 0.302895 0.597918
21 1 0.359358 0.313897 0.673256
181 2 0.505663 0.325591 0.601764
37 1 0.602035 0.303286 0.663929
229 2 0.752653 0.313312 0.615138
53 1 0.864485 0.310074 0.683832
82 2 0.0452021 0.418549 0.802607
97 2 0.00434841 0.549004 0.620308
9 1 0.10385 0.544945 0.671227
83 2 0.182715 0.445786 0.703454
145 2 0.254717 0.567965 0.630047
25 1 0.359693 0.561939 0.679801
130 2 0.297618 0.445769 0.793261
131 2 0.42654 0.429051 0.709495
193 2 0.508833 0.572157 0.613981
41 1 0.601568 0.569952 0.67648
178 2 0.541746 0.439901 0.784399
179 2 0.67597 0.436766 0.713604
226 2 0.806976 0.456078 0.779182
241 2 0.757442 0.575414 0.611349
57 1 0.86191 0.555297 0.669902
227 2 0.933796 0.417766 0.714787
94 2 0.0505865 0.687268 0.779328
95 2 0.178821 0.67795 0.724226
13 1 0.105822 0.815699 0.6692
143 2 0.419938 0.698466 0.718654
190 2 0.547316 0.687659 0.796331
191 2 0.680791 0.686984 0.720167
238 2 0.80162 0.679722 0.787901
239 2 0.929505 0.690405 0.713677
106 2 0.0485663 0.921806 0.776289
107 2 0.176426 0.922552 0.717358
157 2 0.25636 0.816288 0.607974
29 1 0.354414 0.813063 0.67072
154 2 0.301019 0.940863 0.796958
155 2 0.424277 0.952588 0.688387
205 2 0.500049 0.817791 0.607065
45 1 0.606246 0.806755 0.677511
202 2 0.543416 0.942566 0.79355
203 2 0.675579 0.949149 0.720622
250 2 0.807996 0.938003 0.794691
253 2 0.749584 0.809033 0.60204
61 1 0.864034 0.805221 0.66883
251 2 0.926609 0.919548 0.717467
65 2 0.0410041 0.0587466 0.000884207
258 3 0.0826364 0.185992 0.930394
76 2 0.130591 0.0715267 0.876176
4 1 0.225356 0.0562943 0.817012
67 2 0.195466 0.19637 0.999252
113 2 0.296319 0.0653954 0.999579
274 3 0.332793 0.190212 0.927102
124 2 0.378616 0.0766093 0.883762
161 2 0.53826 0.0681669 0.00195141
20 1 0.47171 0.0600904 0.809226
115 2 0.455622 0.195767 0.990798
172 2 0.630393 0.0739516 0.895401
290 3 0.584096 0.191027 0.924132
209 2 0.796566 0.071472 0.00722866
36 1 0.73711 0.0823947 0.843823
306 3 0.839013 0.194599 0.941526
220 2 0.890313 0.0644131 0.907578
52 1 0.977454 0.0537085 0.828133
77 2 0.0450519 0.303581 0.011712
88 2 0.126044 0.318161 0.884901
8 1 0.231801 0.319857 0.833
125 2 0.291046 0.322342 0.000665077
136 2 0.383618 0.327215 0.881183
173 2 0.543133 0.318357 0.976465
24 1 0.47886 0.319825 0.81811
184 2 0.636792 0.317229 0.868751
40 1 0.724386 0.315036 0.814844
232 2 0.881893 0.315954 0.899211
56 1 0.979682 0.300138 0.84071
262 3 0.0843321 0.439608 0.940335
100 2 0.129286 0.557615 0.912491
12 1 0.232894 0.552555 0.844634
79 2 0.202947 0.429381 0.0151075
278 3 0.329275 0.448167 0.941306
148 2 0.385195 0.573778 0.895285
28 1 0.471638 0.567696 0.819664
127 2 0.455972 0.443805 0.0192563
294 3 0.582319 0.445258 0.916879
196 2 0.631524 0.571154 0.895188
175 2 0.702464 0.440066 0.998872
233 2 0.795997 0.568316 0.995232
44 1 0.727648 0.549467 0.828749
310 3 0.832629 0.43991 0.930623
244 2 0.883471 0.561589 0.89773
60 1 0.973294 0.570052 0.837606
223 2 0.95246 0.418043 0.00371531
266 3 0.0855031 0.697007 0.92081
142 2 0.307055 0.677896 0.79769
282 3 0.334213 0.694543 0.947193
298 3 0.57893 0.68974 0.941245
314 3 0.837645 0.688237 0.936425
270 3 0.0805065 0.946172 0.925076
112 2 0.132155 0.82445 0.892682
16 1 0.231685 0.820496 0.82181
286 3 0.335837 0.947981 0.94597
160 2 0.38546 0.814958 0.922801
32 1 0.470535 0.824915 0.826561
302 3 0.581913 0.933875 0.930727
208 2 0.633238 0.825974 0.878837
199 2 0.708286 0.94088 0.980008
48 1 0.730905 0.808223 0.824357
318 3 0.843059 0.946518 0.942199
256 2 0.887124 0.812179 0.891512
64 1 0.977488 0.807227 0.850934
ITEM: TIMESTEP
200
ITEM: NUMBER OF ATOMS
320
ITEM: BOX BOUNDS xy xz yz pp pp pp
-9.0262167182766073e-01 4.2671940372952257e+01 5.4342051858445338e-02
-4.7093425175875936e-01 1.9644958125100469e+01 -2.1823350733843852e-02
-3.3568673620655609e-01 1.8096686736206593e+01 1.2023873341747466e-02
ITEM: ATOMS id type xs ys zs
2 1 0.00835207 0.188685 0.205038
260 3 0.165296 0.0666842 0.0668685
74 2 0.115934 0.17628 0.116168
18 1 0.279397 0.194047 0.157016
276 3 0.420278 0.0787035 0.0645563
122 2 0.372433 0.203035 0.10401
170 2 0.617469 0.171026 0.0833787
292 3 0.666322 0.0602762 0.036722
163 2 0.705397 0.197441 0.975549
50 1 0.766944 0.184287 0.163247
218 2 0.868083 0.166347 0.122771
308 3 0.919033 0.0606857 0.0600432
211 2 0.960073 0.20102 0.0263199
264 3 0.160174 0.302485 0.0899199
280 3 0.413488 0.33237 0.0561341
34 1 0.530621 0.191779 0.146924
296 3 0.658131 0.303453 0.0397345
221 2 0.792368 0.307143 0.00381606
312 3 0.908361 0.302598 0.0879081
6 1 0.0269319 0.456938 0.148713
89 2 0.0425199 0.57947 0.983451
268 3 0.165688 0.560121 0.0722177
86 2 0.116245 0.452556 0.110378
22 1 0.270609 0.440941 0.178248
137 2 0.291578 0.567789 0.99564
134 2 0.365996 0.450242 0.0949618
284 3 0.412798 0.581378 0.0674839
38 1 0.526944 0.446159 0.196143
185 2 0.540598 0.565773 0.987398
182 2 0.614615 0.450295 0.0860583
300 3 0.663539 0.562912 0.0465
54 1 0.770954 0.436997 0.153253
230 2 0.865141 0.44178 0.110607
316 3 0.91318 0.547565 0.0748621
10 1 0.0268371 0.674309 0.168661
98 2 0.121304 0.694408 0.0990642
91 2 0.212661 0.690673 0.00118943
26 1 0.273102 0.681082 0.188203
146 2 0.364005 0.692669 0.111057
42 1 0.517287 0.702911 0.159518
139 2 0.455826 0.699704 0.0110186
194 2 0.621468 0.704786 0.0835761
187 2 0.705757 0.698302 0.974607
58 1 0.76798 0.68723 0.144211
242 2 0.866732 0.705842 0.117582
235 2 0.960663 0.675572 0.0124588
14 1 0.0213699 0.932129 0.203526
101 2 0.0469989 0.802359 0.00119593
272 3 0.172491 0.822499 0.0551415
110 2 0.122306 0.928809 0.102466
30 1 0.264892 0.921017 0.156594
103 2 0.21059 0.949846 0.980868
149 2 0.295433 0.821367 0.981163
158 2 0.369576 0.943655 0.102228
288 3 0.413621 0.819748 0.0841277
46 1 0.519075 0.937242 0.157792
197 2 0.536367 0.829672 0.991623
151 2 0.446094 0.952043 0.989053
206 2 0.618493 0.941588 0.0923434
304 3 0.66418 0.814021 0.0504096
62 1 0.776898 0.930295 0.146865
245 2 0.791422 0.808721 0.981076
254 2 0.875322 0.936394 0.106365
320 3 0.91937 0.806958 0.0713321
247 2 0.968293 0.933237 0.012804
69 2 0.0765824 0.0534475 0.29656
3 1 0.140334 0.186797 0.339836
72 2 0.194678 0.0703145 0.221281
75 2 0.240844 0.177708 0.38429
117 2 0.328154 0.0789138 0.28268
19 1 0.397399 0.198155 0.344132
120 2 0.458997 0.0673732 0.206926
123 2 0.491172 0.202506 0.380716
165 2 0.578274 0.0740523 0.275471
35 1 0.656218 0.186531 0.334521
168 2 0.702009 0.0695369 0.182291
171 2 0.743689 0.188377 0.388819
51 1 0.891644 0.161778 0.354935
213 2 0.807855 0.0477032 0.271144
216 2 0.945243 0.0419039 0.228116
219 2 0.999022 0.155858 0.403259
81 2 0.0741627 0.30544 0.297339
84 2 0.193424 0.315532 0.236078
129 2 0.323534 0.324644 0.266207
132 2 0.44745 0.31383 0.210648
177 2 0.580175 0.310038 0.284648
180 2 0.693899 0.318984 0.191118
225 2 0.824662 0.316714 0.273161
228 2 0.936031 0.278086 0.246931
93 2 0.0697856 0.551907 0.296392
7 1 0.138435 0.443953 0.316292
87 2 0.24864 0.435549 0.395984
96 2 0.196903 0.569491 0.241967
141 2 0.324324 0.554514 0.286447
23 1 0.390004 0.433868 0.323967
144 2 0.453103 0.581622 0.220545
135 2 0.499336 0.439234 0.402158
189 2 0.580515 0.578803 0.273684
39 1 0.644944 0.44406 0.328537
192 2 0.698502 0.552024 0.205245
183 2 0.740772 0.435616 0.402437
55 1 0.901293 0.417906 0.349946
237 2 0.820341 0.546344 0.287009
231 2 0.99882 0.444643 0.415216
240 2 0.951076 0.531458 0.219514
11 1 0.139364 0.689732 0.320535
99 2 0.250532 0.687436 0.403293
27 1 0.39198 0.677962 0.341048
147 2 0.492551 0.678091 0.427531
43 1 0.643879 0.697503 0.328411
204 2 0.702972 0.829159 0.213104
195 2 0.738705 0.68301 0.382745
59 1 0.901072 0.653858 0.316575
243 2 0.998902 0.666546 0.391025
105 2 0.0713659 0.809158 0.286637
15 1 0.147748 0.924992 0.313065
108 2 0.201921 0.796091 0.204955
111 2 0.252564 0.933949 0.40288
153 2 0.321878 0.816419 0.293397
31 1 0.391572 0.954874 0.33007
156 2 0.449236 0.820668 0.23547
159 2 0.495894 0.955591 0.388718
201 2 0.572422 0.817926 0.298301
47 1 0.64795 0.950358 0.31766
207 2 0.736376 0.919061 0.399111
249 2 0.818145 0.811514 0.287375
63 1 0.890191 0.923487 0.322003
255 2 0.993143 0.939753 0.4066
252 2 0.948586 0.803172 0.225167
257 3 0.0462089 0.0411498 0.450199
66 2 0.0826324 0.20291 0.505705
68 2 0.162908 0.0534515 0.504442
259 3 0.207709 0.184709 0.564325
121 2 0.255179 0.0585984 0.619401
273 3 0.290774 0.0725435 0.43006
114 2 0.337801 0.187078 0.500623
116 2 0.424713 0.0762508 0.483622
275 3 0.464887 0.197958 0.544453
289 3 0.541199 0.0731344 0.425183
162 2 0.585441 0.192418 0.504712
164 2 0.662295 0.0681858 0.48611
291 3 0.710488 0.181508 0.559397
305 3 0.785895 0.0525267 0.431235
210 2 0.831453 0.181163 0.502056
307 3 0.966518 0.171704 0.560999
212 2 0.915031 0.0359329 0.516684
261 3 0.0395977 0.299569 0.443237
80 2 0.16881 0.313549 0.493698
277 3 0.290869 0.309766 0.426699
128 2 0.417982 0.329085 0.487561
293 3 0.544326 0.313424 0.4461
176 2 0.668953 0.323849 0.49842
309 3 0.78779 0.310059 0.433822
224 2 0.923919 0.300258 0.497912
265 3 0.0461809 0.553512 0.457997
78 2 0.0820479 0.415174 0.500674
92 2 0.163606 0.561706 0.502852
263 3 0.206194 0.438233 0.554095
281 3 0.290434 0.564231 0.454751
126 2 0.328828 0.416757 0.51971
140 2 0.414071 0.562737 0.512736
279 3 0.458044 0.44933 0.557196
297 3 0.542886 0.57057 0.461295
174 2 0.581194 0.435413 0.512759
188 2 0.660949 0.555388 0.507953
295 3 0.708313 0.451675 0.568337
313 3 0.785669 0.561698 0.427831
222 2 0.824819 0.45014 0.510258
236 2 0.919141 0.547357 0.494789
311 3 0.964029 0.423959 0.56107
90 2 0.0845079 0.709647 0.500071
269 3 0.0327078 0.81076 0.442783
267 3 0.20989 0.682853 0.565063
138 2 0.337038 0.683421 0.509791
283 3 0.457207 0.694084 0.58147
186 2 0.575564 0.699369 0.500304
299 3 0.706214 0.683968 0.555406
234 2 0.834811 0.684091 0.483004
315 3 0.961258 0.67801 0.556284
102 2 0.084495 0.910995 0.501045
109 2 0.011855 0.794307 0.608084
104 2 0.170386 0.813237 0.523957
271 3 0.205212 0.932126 0.577078
150 2 0.338715 0.95177 0.493101
285 3 0.296434 0.822202 0.446819
152 2 0.417884 0.798745 0.504124
287 3 0.464892 0.946419 0.549737
301 3 0.53317 0.812451 0.442339
198 2 0.582274 0.938876 0.483713
200 2 0.658594 0.816526 0.504265
303 3 0.700267 0.9506 0.559015
317 3 0.785174 0.79973 0.449861
246 2 0.826956 0.93019 0.492758
319 3 0.958803 0.913315 0.569795
248 2 0.916409 0.802711 0.496541
70 2 0.0457134 0.187564 0.802897
73 2 0.00691867 0.0418979 0.615068
1 1 0.106249 0.0489417 0.683206
71 2 0.180537 0.189314 0.72389
17 1 0.347477 0.068379 0.663525
118 2 0.295025 0.192473 0.785751
119 2 0.427758 0.195748 0.683218
169 2 0.508661 0.0738368 0.590477
33 1 0.605372 0.0641709 0.653583
166 2 0.551062 0.191816 0.769955
167 2 0.6771 0.169054 0.702569
214 2 0.811309 0.182704 0.787875
217 2 0.74993 0.057087 0.610746
49 1 0.858663 0.0576569 0.658971
215 2 0.932012 0.190596 0.710675
85 2 0.00919507 0.287096 0.605372
5 1 0.108171 0.300983 0.665054
133 2 0.254989 0.298827 0.587675
21 1 0.354741 0.308991 0.669135
181 2 0.513229 0.305801 0.598761
37 1 0.598814 0.320329 0.667956
229 2 0.76038 0.297187 0.593838
53 1 0.864799 0.321436 0.679621
82 2 0.0392102 0.428282 0.794105
97 2 0.00308004 0.569742 0.6195
9 1 0.103285 0.553583 0.676737
83 2 0.176478 0.439003 0.715825
145 2 0.261373 0.557688 0.599561
25 1 0.353583 0.563305 0.688308
130 2 0.302747 0.439439 0.780158
131 2 0.42561 0.430426 0.695688
193 2 0.510297 0.579134 0.61241
41 1 0.600013 0.565238 0.686295
178 2 0.545599 0.455811 0.776264
179 2 0.670303 0.456628 0.72012
226 2 0.808318 0.44915 0.768571
241 2 0.754783 0.576696 0.601263
57 1 0.863981 0.571752 0.664625
227 2 0.935456 0.430883 0.721974
94 2 0.0521288 0.679652 0.787095
95 2 0.183513 0.676229 0.718661
13 1 0.104534 0.813031 0.66165
143 2 0.420296 0.689411 0.727219
190 2 0.54334 0.686333 0.786408
191 2 0.67904 0.685709 0.695619
238 2 0.806156 0.68571 0.79065
239 2 0.92956 0.694251 0.704459
106 2 0.0457196 0.927144 0.774337
107 2 0.176395 0.931396 0.73021
157 2 0.257413 0.809663 0.615648
29 1 0.355541 0.818181 0.667681
154 2 0.303899 0.946541 0.790937