ITEM: TIMESTEP
0
ITEM: NUMBER OF ATOMS
320
ITEM: BOX BOUNDS xy xz yz pp pp pp
0.0000000000000000e+00 4.1736800000000002e+01 0.0000000000000000e+00
0.0000000000000000e+00 1.9161999999999999e+01 0.0000000000000000e+00
0.0000000000000000e+00 1.7760999999999999e+01 0.0000000000000000e+00
ITEM: ATOMS id type xs ys zs
2 1 0.02109 0.1875 0.1709
65 2 0.040805 0.0625 0.0016
260 3 0.165098 0.0625 0.06203
74 2 0.117023 0.1875 0.11449
18 1 0.27109 0.1875 0.1709
113 2 0.290805 0.0625 0.0016
276 3 0.415098 0.0625 0.06203
122 2 0.367023 0.1875 0.11449
34 1 0.52109 0.1875 0.1709
161 2 0.540805 0.0625 0.0016
170 2 0.617023 0.1875 0.11449
292 3 0.665098 0.0625 0.06203
50 1 0.77109 0.1875 0.1709
209 2 0.790805 0.0625 0.0016
218 2 0.867023 0.1875 0.11449
308 3 0.915098 0.0625 0.06203
77 2 0.040805 0.3125 0.0016
264 3 0.165098 0.3125 0.06203
125 2 0.290805 0.3125 0.0016
280 3 0.415098 0.3125 0.06203
173 2 0.540805 0.3125 0.0016
296 3 0.665098 0.3125 0.06203
221 2 0.790805 0.3125 0.0016
312 3 0.915098 0.3125 0.06203
6 1 0.02109 0.4375 0.1709
89 2 0.040805 0.5625 0.0016
268 3 0.165098 0.5625 0.06203
86 2 0.117023 0.4375 0.11449
22 1 0.27109 0.4375 0.1709
137 2 0.290805 0.5625 0.0016
134 2 0.367023 0.4375 0.11449
284 3 0.415098 0.5625 0.06203
38 1 0.52109 0.4375 0.1709
185 2 0.540805 0.5625 0.0016
182 2 0.617023 0.4375 0.11449
300 3 0.665098 0.5625 0.06203
54 1 0.77109 0.4375 0.1709
233 2 0.790805 0.5625 0.0016
230 2 0.867023 0.4375 0.11449
316 3 0.915098 0.5625 0.06203
10 1 0.02109 0.6875 0.1709
98 2 0.117023 0.6875 0.11449
26 1 0.27109 0.6875 0.1709
146 2 0.367023 0.6875 0.11449
42 1 0.52109 0.6875 0.1709
194 2 0.617023 0.6875 0.11449
58 1 0.77109 0.6875 0.1709
242 2 0.867023 0.6875 0.11449
14 1 0.02109 0.9375 0.1709
101 2 0.040805 0.8125 0.0016
272 3 0.165098 0.8125 0.06203
110 2 0.117023 0.9375 0.11449
30 1 0.27109 0.9375 0.1709
149 2 0.290805 0.8125 0.0016
158 2 0.367023 0.9375 0.11449
288 3 0.415098 0.8125 0.06203
46 1 0.52109 0.9375 0.1709
197 2 0.540805 0.8125 0.0016
206 2 0.617023 0.9375 0.11449
304 3 0.665098 0.8125 0.06203
62 1 0.77109 0.9375 0.1709
245 2 0.790805 0.8125 0.0016
254 2 0.867023 0.9375 0.11449
320 3 0.915098 0.8125 0.06203
69 2 0.074775 0.0625 0.28729
3 1 0.14609 0.1875 0.3291
72 2 0.199775 0.0625 0.21271
75 2 0.242023 0.1875 0.38551
117 2 0.324775 0.0625 0.28729
19 1 0.39609 0.1875 0.3291
120 2 0.449775 0.0625 0.21271
123 2 0.492023 0.1875 0.38551
165 2 0.574775 0.0625 0.28729
35 1 0.64609 0.1875 0.3291
168 2 0.699775 0.0625 0.21271
171 2 0.742023 0.1875 0.38551
51 1 0.89609 0.1875 0.3291
213 2 0.824775 0.0625 0.28729
216 2 0.949775 0.0625 0.21271
219 2 0.992022 0.1875 0.38551
81 2 0.074775 0.3125 0.28729
84 2 0.199775 0.3125 0.21271
129 2 0.324775 0.3125 0.28729
132 2 0.449775 0.3125 0.21271
177 2 0.574775 0.3125 0.28729
180 2 0.699775 0.3125 0.21271
225 2 0.824775 0.3125 0.28729
228 2 0.949775 0.3125 0.21271
93 2 0.074775 0.5625 0.28729
7 1 0.14609 0.4375 0.3291
87 2 0.242023 0.4375 0.38551
96 2 0.199775 0.5625 0.21271
141 2 0.324775 0.5625 0.28729
23 1 0.39609 0.4375 0.3291
144 2 0.449775 0.5625 0.21271
135 2 0.492023 0.4375 0.38551
189 2 0.574775 0.5625 0.28729
39 1 0.64609 0.4375 0.3291
192 2 0.699775 0.5625 0.21271
183 2 0.742023 0.4375 0.38551
55 1 0.89609 0.4375 0.3291
237 2 0.824775 0.5625 0.28729
231 2 0.992022 0.4375 0.38551
240 2 0.949775 0.5625 0.21271
11 1 0.14609 0.6875 0.3291
99 2 0.242023 0.6875 0.38551
27 1 0.39609 0.6875 0.3291
147 2 0.492023 0.6875 0.38551
43 1 0.64609 0.6875 0.3291
195 2 0.742023 0.6875 0.38551
59 1 0.89609 0.6875 0.3291
243 2 0.992022 0.6875 0.38551
105 2 0.074775 0.8125 0.28729
15 1 0.14609 0.9375 0.3291
108 2 0.199775 0.8125 0.21271
111 2 0.242023 0.9375 0.38551
153 2 0.324775 0.8125 0.28729
31 1 0.39609 0.9375 0.3291
156 2 0.449775 0.8125 0.21271
159 2 0.492023 0.9375 0.38551
201 2 0.574775 0.8125 0.28729
47 1 0.64609 0.9375 0.3291
204 2 0.699775 0.8125 0.21271
207 2 0.742023 0.9375 0.38551
63 1 0.89609 0.9375 0.3291
249 2 0.824775 0.8125 0.28729
252 2 0.949775 0.8125 0.21271
255 2 0.992022 0.9375 0.38551
257 3 0.0400975 0.0625 0.43797
66 2 0.084195 0.1875 0.5016
68 2 0.165805 0.0625 0.4984
259 3 0.209903 0.1875 0.56203
273 3 0.290098 0.0625 0.43797
114 2 0.334195 0.1875 0.5016
116 2 0.415805 0.0625 0.4984
275 3 0.459903 0.1875 0.56203
289 3 0.540098 0.0625 0.43797
162 2 0.584195 0.1875 0.5016
164 2 0.665805 0.0625 0.4984
291 3 0.709902 0.1875 0.56203
305 3 0.790098 0.0625 0.43797
210 2 0.834195 0.1875 0.5016
307 3 0.959903 0.1875 0.56203
212 2 0.915805 0.0625 0.4984
261 3 0.0400975 0.3125 0.43797
80 2 0.165805 0.3125 0.4984
277 3 0.290098 0.3125 0.43797
128 2 0.415805 0.3125 0.4984
293 3 0.540098 0.3125 0.43797
176 2 0.665805 0.3125 0.4984
309 3 0.790098 0.3125 0.43797
224 2 0.915805 0.3125 0.4984
265 3 0.0400975 0.5625 0.43797
78 2 0.084195 0.4375 0.5016
92 2 0.165805 0.5625 0.4984
263 3 0.209903 0.4375 0.56203
281 3 0.290098 0.5625 0.43797
126 2 0.334195 0.4375 0.5016
140 2 0.415805 0.5625 0.4984
279 3 0.459903 0.4375 0.56203
297 3 0.540098 0.5625 0.43797
174 2 0.584195 0.4375 0.5016
188 2 0.665805 0.5625 0.4984
295 3 0.709902 0.4375 0.56203
313 3 0.790098 0.5625 0.43797
222 2 0.834195 0.4375 0.5016
311 3 0.959903 0.4375 0.56203
236 2 0.915805 0.5625 0.4984
90 2 0.084195 0.6875 0.5016
267 3 0.209903 0.6875 0.56203
138 2 0.334195 0.6875 0.5016
283 3 0.459903 0.6875 0.56203
186 2 0.584195 0.6875 0.5016
299 3 0.709902 0.6875 0.56203
234 2 0.834195 0.6875 0.5016
315 3 0.959903 0.6875 0.56203
269 3 0.0400975 0.8125 0.43797
102 2 0.084195 0.9375 0.5016
104 2 0.165805 0.8125 0.4984
271 3 0.209903 0.9375 0.56203
150 2 0.334195 0.9375 0.5016
285 3 0.290098 0.8125 0.43797
152 2 0.415805 0.8125 0.4984
287 3 0.459903 0.9375 0.56203
301 3 0.540098 0.8125 0.43797
198 2 0.584195 0.9375 0.5016
200 2 0.665805 0.8125 0.4984
303 3 0.709902 0.9375 0.56203
317 3 0.790098 0.8125 0.43797
246 2 0.834195 0.9375 0.5016
319 3 0.959903 0.9375 0.56203
248 2 0.915805 0.8125 0.4984
70 2 0.050225 0.1875 0.78729
73 2 0.0079775 0.0625 0.61449
1 1 0.10391 0.0625 0.6709
71 2 0.175225 0.1875 0.71271
121 2 0.257978 0.0625 0.61449
17 1 0.35391 0.0625 0.6709
118 2 0.300225 0.1875 0.78729
119 2 0.425225 0.1875 0.71271
169 2 0.507978 0.0625 0.61449
33 1 0.60391 0.0625 0.6709
166 2 0.550225 0.1875 0.78729
167 2 0.675225 0.1875 0.71271
214 2 0.800225 0.1875 0.78729
217 2 0.757978 0.0625 0.61449
49 1 0.85391 0.0625 0.6709
215 2 0.925225 0.1875 0.71271
85 2 0.0079775 0.3125 0.61449
5 1 0.10391 0.3125 0.6709
133 2 0.257978 0.3125 0.61449
21 1 0.35391 0.3125 0.6709
181 2 0.507978 0.3125 0.61449
37 1 0.60391 0.3125 0.6709
229 2 0.757978 0.3125 0.61449
53 1 0.85391 0.3125 0.6709
82 2 0.050225 0.4375 0.78729
97 2 0.0079775 0.5625 0.61449
9 1 0.10391 0.5625 0.6709
83 2 0.175225 0.4375 0.71271
145 2 0.257978 0.5625 0.61449
25 1 0.35391 0.5625 0.6709
130 2 0.300225 0.4375 0.78729
131 2 0.425225 0.4375 0.71271
193 2 0.507978 0.5625 0.61449
41 1 0.60391 0.5625 0.6709
178 2 0.550225 0.4375 0.78729
179 2 0.675225 0.4375 0.71271
226 2 0.800225 0.4375 0.78729
241 2 0.757978 0.5625 0.61449
57 1 0.85391 0.5625 0.6709
227 2 0.925225 0.4375 0.71271
94 2 0.050225 0.6875 0.78729
95 2 0.175225 0.6875 0.71271
142 2 0.300225 0.6875 0.78729
143 2 0.425225 0.6875 0.71271
190 2 0.550225 0.6875 0.78729
191 2 0.675225 0.6875 0.71271
238 2 0.800225 0.6875 0.78729
239 2 0.925225 0.6875 0.71271
106 2 0.050225 0.9375 0.78729
109 2 0.0079775 0.8125 0.61449
13 1 0.10391 0.8125 0.6709
107 2 0.175225 0.9375 0.71271
157 2 0.257978 0.8125 0.61449
29 1 0.35391 0.8125 0.6709
154 2 0.300225 0.9375 0.78729
155 2 0.425225 0.9375 0.71271
205 2 0.507978 0.8125 0.61449
45 1 0.60391 0.8125 0.6709
202 2 0.550225 0.9375 0.78729
203 2 0.675225 0.9375 0.71271
250 2 0.800225 0.9375 0.78729
253 2 0.757978 0.8125 0.61449
61 1 0.85391 0.8125 0.6709
251 2 0.925225 0.9375 0.71271
258 3 0.0849025 0.1875 0.93797
76 2 0.132977 0.0625 0.88551
4 1 0.22891 0.0625 0.8291
67 2 0.209195 0.1875 0.9984
274 3 0.334903 0.1875 0.93797
124 2 0.382978 0.0625 0.88551
20 1 0.47891 0.0625 0.8291
115 2 0.459195 0.1875 0.9984
172 2 0.632977 0.0625 0.88551
290 3 0.584902 0.1875 0.93797
163 2 0.709195 0.1875 0.9984
36 1 0.72891 0.0625 0.8291
306 3 0.834902 0.1875 0.93797
220 2 0.882978 0.0625 0.88551
52 1 0.97891 0.0625 0.8291
211 2 0.959195 0.1875 0.9984
88 2 0.132977 0.3125 0.88551
8 1 0.22891 0.3125 0.8291
136 2 0.382978 0.3125 0.88551
24 1 0.47891 0.3125 0.8291
184 2 0.632977 0.3125 0.88551
40 1 0.72891 0.3125 0.8291
232 2 0.882978 0.3125 0.88551
56 1 0.97891 0.3125 0.8291
262 3 0.0849025 0.4375 0.93797
100 2 0.132977 0.5625 0.88551
12 1 0.22891 0.5625 0.8291
79 2 0.209195 0.4375 0.9984
278 3 0.334903 0.4375 0.93797
148 2 0.382978 0.5625 0.88551
28 1 0.47891 0.5625 0.8291
127 2 0.459195 0.4375 0.9984
294 3 0.584902 0.4375 0.93797
196 2 0.632977 0.5625 0.88551
175 2 0.709195 0.4375 0.9984
44 1 0.72891 0.5625 0.8291
310 3 0.834902 0.4375 0.93797
244 2 0.882978 0.5625 0.88551
60 1 0.97891 0.5625 0.8291
223 2 0.959195 0.4375 0.9984
266 3 0.0849025 0.6875 0.93797
91 2 0.209195 0.6875 0.9984
282 3 0.334903 0.6875 0.93797
139 2 0.459195 0.6875 0.9984
298 3 0.584902 0.6875 0.93797
187 2 0.709195 0.6875 0.9984
314 3 0.834902 0.6875 0.93797
235 2 0.959195 0.6875 0.9984
270 3 0.0849025 0.9375 0.93797
112 2 0.132977 0.8125 0.88551
16 1 0.22891 0.8125 0.8291
103 2 0.209195 0.9375 0.9984
286 3 0.334903 0.9375 0.93797
160 2 0.382978 0.8125 0.88551
32 1 0.47891 0.8125 0.8291
151 2 0.459195 0.9375 0.9984
302 3 0.584902 0.9375 0.93797
208 2 0.632977 0.8125 0.88551
199 2 0.709195 0.9375 0.9984
48 1 0.72891 0.8125 0.8291
318 3 0.834902 0.9375 0.93797
256 2 0.882978 0.8125 0.88551
64 1 0.97891 0.8125 0.8291
247 2 0.959195 0.9375 0.9984
ITEM: TIMESTEP
100
ITEM: NUMBER OF ATOMS
320
ITEM: BOX BOUNDS xy xz yz pp pp pp
0.0000000000000000e+00 4.1736800000000002e+01 0.0000000000000000e+00
0.0000000000000000e+00 1.9161999999999999e+01 0.0000000000000000e+00
0.0000000000000000e+00 1.7760999999999999e+01 0.0000000000000000e+00
ITEM: ATOMS id type xs ys zs
2 1 0.0121926 0.191069 0.179509
65 2 0.0426218 0.0651188 0.0173075
260 3 0.158108 0.0698766 0.0575372
74 2 0.118826 0.190442 0.117695
18 1 0.263544 0.190423 0.166052
113 2 0.287071 0.0606245 0.998735
276 3 0.415282 0.0669778 0.0587996
122 2 0.367201 0.196434 0.108838
34 1 0.511303 0.193385 0.161307
161 2 0.541689 0.0691241 0.000687694
170 2 0.616829 0.19796 0.118751
292 3 0.66124 0.0750866 0.0501474
50 1 0.77519 0.197863 0.173764
209 2 0.793085 0.0574792 0.0105167
218 2 0.862325 0.209418 0.110153
308 3 0.914394 0.0756232 0.0743016
77 2 0.0448141 0.313947 0.0199466
264 3 0.170266 0.323092 0.0461032
125 2 0.289434 0.315399 0.994134
280 3 0.413613 0.321278 0.0466582
173 2 0.54231 0.305427 0.00982529
296 3 0.667543 0.317122 0.056894
221 2 0.790312 0.314551 0.999623
312 3 0.918081 0.315425 0.064118
6 1 0.0217385 0.42923 0.158123
89 2 0.0447221 0.557552 0.010942
268 3 0.163348 0.582263 0.0553296
86 2 0.120578 0.449432 0.1065
22 1 0.271891 0.42749 0.185374
137 2 0.293353 0.560059 0.0146221
134 2 0.361805 0.4175 0.131618
284 3 0.416636 0.56743 0.0722749
38 1 0.52544 0.407371 0.182684
185 2 0.545996 0.557365 0.0310886
182 2 0.616595 0.429981 0.117945
300 3 0.663353 0.553381 0.0539401
54 1 0.78018 0.44786 0.152644
233 2 0.788116 0.564981 0.994062
230 2 0.870956 0.44381 0.114188
316 3 0.922162 0.567351 0.0779367
10 1 0.0199728 0.681703 0.166245
98 2 0.118675 0.703882 0.119564
26 1 0.271576 0.682719 0.17531
146 2 0.36168 0.686826 0.120735
42 1 0.514224 0.690712 0.181177
194 2 0.612781 0.686826 0.110265
58 1 0.774159 0.700475 0.173499
242 2 0.863894 0.686283 0.105109
14 1 0.0164591 0.926898 0.173988
101 2 0.0369228 0.819535 0.994511
272 3 0.168327 0.822095 0.0595446
110 2 0.114755 0.93808 0.109175
30 1 0.26871 0.942412 0.167786
149 2 0.285718 0.814895 0.00793449
158 2 0.365423 0.931667 0.110545
288 3 0.413787 0.8047 0.0665293
46 1 0.516694 0.953351 0.190368
197 2 0.53609 0.801514 0.0132597
206 2 0.604828 0.93952 0.114959
304 3 0.662239 0.815439 0.0686559
62 1 0.769071 0.93895 0.171476
245 2 0.786465 0.804097 0.982599
254 2 0.862065 0.95057 0.114094
320 3 0.909612 0.822979 0.0627057
69 2 0.07802 0.0482963 0.287951
3 1 0.138692 0.200733 0.320721
72 2 0.193848 0.0757825 0.212635
75 2 0.239556 0.176291 0.362754
117 2 0.322623 0.0583107 0.269782
19 1 0.396605 0.179553 0.313214
120 2 0.449368 0.0713557 0.211967
123 2 0.492898 0.185028 0.387128
165 2 0.571252 0.0787915 0.282008
35 1 0.646557 0.171937 0.32135
168 2 0.69733 0.0531846 0.203389
171 2 0.737639 0.184317 0.388215
51 1 0.894614 0.184538 0.336997
213 2 0.825685 0.0700696 0.289772
216 2 0.946409 0.0594521 0.233801
219 2 0.987037 0.197731 0.391223
81 2 0.0703589 0.307508 0.270859
84 2 0.201861 0.325533 0.212858
129 2 0.328722 0.300658 0.30115
132 2 0.446571 0.3151 0.20764
177 2 0.585235 0.308035 0.288074
180 2 0.70618 0.312967 0.207289
225 2 0.8352 0.322453 0.284023
228 2 0.945823 0.311511 0.226098
93 2 0.0788 0.566733 0.293629
7 1 0.150747 0.438512 0.323488
87 2 0.23835 0.432562 0.386473
96 2 0.204562 0.562056 0.206326
141 2 0.326561 0.545645 0.281224
23 1 0.401163 0.436417 0.32268
144 2 0.460015 0.546849 0.214932
135 2 0.497788 0.444719 0.377795
189 2 0.572033 0.573846 0.272747
39 1 0.640039 0.455035 0.333547
192 2 0.701674 0.550721 0.207648
183 2 0.735659 0.442987 0.398568
55 1 0.89736 0.444108 0.340595
237 2 0.823104 0.558699 0.28813
231 2 0.989524 0.421963 0.386646
240 2 0.958722 0.54696 0.225783
11 1 0.149764 0.684074 0.327067
99 2 0.242353 0.688728 0.371834
27 1 0.390629 0.674105 0.334478
147 2 0.483141 0.696184 0.396227
43 1 0.649153 0.699669 0.331066
195 2 0.738492 0.694122 0.383374
59 1 0.889613 0.687741 0.328591
243 2 0.994991 0.684767 0.369626
105 2 0.0774358 0.828374 0.284146
15 1 0.155973 0.947527 0.338973
108 2 0.202805 0.814113 0.223611
111 2 0.243444 0.949338 0.370432
153 2 0.33003 0.809785 0.293012
31 1 0.396843 0.926632 0.332398
156 2 0.449757 0.792437 0.224656
159 2 0.485272 0.917022 0.38418
201 2 0.568269 0.807969 0.290562
47 1 0.652403 0.932277 0.331737
204 2 0.703089 0.814192 0.21552
207 2 0.742643 0.940218 0.383248
63 1 0.88955 0.940873 0.336671
249 2 0.821609 0.820077 0.297651
252 2 0.942044 0.810275 0.219327
255 2 0.989584 0.922473 0.384506
257 3 0.0329527 0.0586833 0.423028
66 2 0.0841627 0.181278 0.494832
68 2 0.160907 0.061202 0.501998
259 3 0.207459 0.183522 0.554693
273 3 0.292735 0.0564284 0.426072
114 2 0.339217 0.195483 0.502032
116 2 0.411112 0.0657428 0.4965
275 3 0.46451 0.185607 0.559521
289 3 0.541492 0.0456049 0.442283
162 2 0.58065 0.178478 0.501437
164 2 0.663582 0.0580401 0.502655
291 3 0.714765 0.176696 0.56517
305 3 0.789699 0.0706165 0.442078
210 2 0.835008 0.194226 0.501649
307 3 0.961854 0.199171 0.569109
212 2 0.92055 0.0570037 0.49894
261 3 0.0464282 0.315859 0.439351
80 2 0.16232 0.318759 0.490478
277 3 0.288448 0.296092 0.442273
128 2 0.416289 0.308567 0.484159
293 3 0.541894 0.316068 0.438009
176 2 0.667564 0.297592 0.497505
309 3 0.789046 0.319798 0.429684
224 2 0.90372 0.309491 0.514649
265 3 0.0398714 0.559302 0.442108
78 2 0.0931771 0.438943 0.484591
92 2 0.165088 0.56204 0.500219
263 3 0.211801 0.432473 0.56961
281 3 0.288279 0.55218 0.434877
126 2 0.327117 0.43433 0.506536
140 2 0.419477 0.554122 0.477106
279 3 0.461212 0.43138 0.553437
297 3 0.541291 0.579317 0.437595
174 2 0.58821 0.446371 0.509523
188 2 0.666005 0.565489 0.49829
295 3 0.707171 0.427894 0.566027
313 3 0.784935 0.566423 0.443317
222 2 0.827616 0.438444 0.512823
311 3 0.955074 0.430298 0.558458
236 2 0.911294 0.566339 0.490669
90 2 0.0852388 0.678359 0.506397
267 3 0.211648 0.68558 0.559905
138 2 0.33062 0.68889 0.512034
283 3 0.461301 0.681875 0.577162
186 2 0.592447 0.690421 0.491457
299 3 0.714632 0.687514 0.561795
234 2 0.834842 0.689173 0.506267
315 3 0.960609 0.686083 0.539578
269 3 0.0441148 0.811836 0.439464
102 2 0.0886343 0.932349 0.492502
104 2 0.168666 0.810896 0.496023
271 3 0.214203 0.943342 0.56169
150 2 0.336535 0.940325 0.498902
285 3 0.290787 0.819116 0.444059
152 2 0.408951 0.806321 0.520401
287 3 0.455264 0.942465 0.564048
301 3 0.537539 0.809268 0.451177
198 2 0.588034 0.92892 0.501419
200 2 0.666811 0.817445 0.504159
303 3 0.712289 0.941083 0.555557
317 3 0.787357 0.807889 0.454685
246 2 0.828879 0.934664 0.514842
319 3 0.962658 0.932454 0.57043
248 2 0.91122 0.822364 0.495011
70 2 0.0521905 0.199336 0.780207
73 2 0.0117272 0.0721004 0.606062
1 1 0.104736 0.0699184 0.66408
71 2 0.175143 0.181444 0.710376
121 2 0.254594 0.070123 0.625436
17 1 0.351921 0.0772419 0.670813
118 2 0.299773 0.194005 0.784196
119 2 0.423396 0.186549 0.713773
169 2 0.50945 0.0617547 0.61582
33 1 0.602214 0.0519369 0.684568
166 2 0.554315 0.191379 0.780408
167 2 0.679794 0.187045 0.723946
214 2 0.802597 0.181703 0.774513
217 2 0.76504 0.0534718 0.626123
49 1 0.856223 0.0564044 0.654058
215 2 0.920005 0.183226 0.71691
85 2 0.00948277 0.323665 0.617114
5 1 0.106908 0.309528 0.667479
133 2 0.256937 0.300939 0.622142
21 1 0.356222 0.31409 0.663688
181 2 0.510512 0.301095 0.626556
37 1 0.607403 0.320721 0.688656
229 2 0.760643 0.308675 0.605909
53 1 0.849929 0.315938 0.690269
82 2 0.0475117 0.440814 0.780188
97 2 0.998626 0.56157 0.618236
9 1 0.103717 0.572018 0.678458
83 2 0.169784 0.443491 0.712261
145 2 0.261116 0.557428 0.612339
25 1 0.353574 0.56902 0.691449
130 2 0.303027 0.436093 0.795744
131 2 0.415279 0.44169 0.705846
193 2 0.510936 0.557394 0.607415
41 1 0.609963 0.568302 0.673623
178 2 0.542807 0.4422 0.789776
179 2 0.673661 0.444358 0.73156
226 2 0.797808 0.44621 0.784079
241 2 0.758218 0.56156 0.617792
57 1 0.861412 0.55474 0.661566
227 2 0.922484 0.418851 0.712529
94 2 0.0416592 0.689953 0.784876
95 2 0.174299 0.687354 0.71111
142 2 0.304734 0.696181 0.780586
143 2 0.428426 0.682 0.729868
190 2 0.548606 0.684469 0.780949
191 2 0.681418 0.668557 0.723248
238 2 0.796032 0.698045 0.772122
239 2 0.92463 0.694576 0.697752
106 2 0.0541811 0.940637 0.767537
109 2 0.0137563 0.803099 0.612808
13 1 0.105442 0.813925 0.657854
107 2 0.170081 0.933276 0.704933
157 2 0.260442 0.814257 0.615942
29 1 0.355334 0.822722 0.676861
154 2 0.303634 0.947333 0.776318
155 2 0.422821 0.947741 0.71643
205 2 0.503711 0.81149 0.618876
45 1 0.61735 0.811372 0.68779
202 2 0.539881 0.912885 0.789945
203 2 0.679 0.950223 0.706265
250 2 0.799914 0.938496 0.778075
253 2 0.759678 0.815928 0.623489
61 1 0.854221 0.807463 0.676025
251 2 0.920624 0.929343 0.724702
258 3 0.0859536 0.188886 0.948751
76 2 0.132072 0.0679247 0.877447
4 1 0.220993 0.0345831 0.833942
67 2 0.209747 0.182035 0.982322
274 3 0.335242 0.179259 0.937302
124 2 0.384226 0.0491304 0.883238
20 1 0.478079 0.0600068 0.824667
115 2 0.461451 0.179673 0.982708
172 2 0.631084 0.0444984 0.882967
290 3 0.587409 0.183859 0.939149
163 2 0.712645 0.17824 0.997363
36 1 0.733003 0.0619827 0.832008
306 3 0.834303 0.17911 0.932052
220 2 0.888425 0.0578333 0.891347
52 1 0.984027 0.0612863 0.800548
211 2 0.960934 0.19007 0.991086
88 2 0.135573 0.307085 0.874702
8 1 0.228709 0.313741 0.827196
136 2 0.385206 0.294966 0.878853
24 1 0.476174 0.314129 0.824382
184 2 0.636431 0.315091 0.886297
40 1 0.727796 0.319259 0.820926
232 2 0.887897 0.305579 0.891728
56 1 0.98061 0.307205 0.829093
262 3 0.0884935 0.435352 0.929303
100 2 0.133914 0.566733 0.882613
12 1 0.231591 0.577378 0.82092
79 2 0.210497 0.452895 0.984385
278 3 0.338845 0.445925 0.94827
148 2 0.387905 0.575514 0.898449
28 1 0.47358 0.546436 0.827479
127 2 0.463272 0.442967 0.00657844
294 3 0.578915 0.442966 0.939641
196 2 0.632239 0.555108 0.886776
175 2 0.710444 0.440879 0.987358
44 1 0.73398 0.563357 0.836803
310 3 0.840656 0.43616 0.926611
244 2 0.888034 0.556655 0.86249
60 1 0.975488 0.568615 0.82573
223 2 0.966789 0.445363 0.991222
266 3 0.0810304 0.690309 0.939564
91 2 0.216756 0.696792 0.992001
282 3 0.334736 0.697256 0.943586
139 2 0.459739 0.670629 0.998216
298 3 0.58113 0.686571 0.936467
187 2 0.704317 0.692939 0.999486
314 3 0.832558 0.680948 0.923287
235 2 0.959612 0.699935 0.99636
270 3 0.0854396 0.939528 0.930364
112 2 0.132834 0.806328 0.884893
16 1 0.232025 0.813127 0.80716
103 2 0.213188 0.946301 0.0123951
286 3 0.332234 0.931434 0.941649
160 2 0.384246 0.811368 0.890562
32 1 0.475804 0.800087 0.842906
151 2 0.462232 0.933743 0.0237661
302 3 0.580442 0.929211 0.949671
208 2 0.635816 0.813964 0.891837
199 2 0.710248 0.934439 0.00290745
48 1 0.72505 0.807834 0.821584
318 3 0.834986 0.933236 0.931101
256 2 0.884182 0.808932 0.880767
64 1 0.978542 0.82337 0.829062
247 2 0.958145 0.957486 0.00706733
ITEM: TIMESTEP
200
ITEM: NUMBER OF ATOMS
320
ITEM: BOX BOUNDS xy xz yz pp pp pp
0.0000000000000000e+00 4.1736800000000002e+01 0.0000000000000000e+00
0.0000000000000000e+00 1.9161999999999999e+01 0.0000000000000000e+00
0.0000000000000000e+00 1.7760999999999999e+01 0.0000000000000000e+00
ITEM: ATOMS id type xs ys zs
2 1 0.0110875 0.169888 0.17944
65 2 0.0459965 0.0605422 0.00826196
260 3 0.157313 0.0741958 0.05244
74 2 0.118156 0.23231 0.106016
18 1 0.267972 0.192583 0.134737
113 2 0.288109 0.0590188 0.993138
276 3 0.41238 0.0556096 0.0539828
122 2 0.365292 0.186937 0.100603
34 1 0.515456 0.181699 0.174428
161 2 0.535414 0.0622999 0.00273995
170 2 0.617818 0.195304 0.108764
292 3 0.65958 0.0591315 0.0569338
50 1 0.775425 0.195723 0.171729
209 2 0.79042 0.0634856 0.996224
218 2 0.867104 0.211046 0.108993
308 3 0.910387 0.0797638 0.0749088
77 2 0.0424404 0.308037 0.998229
264 3 0.171004 0.340294 0.0407569
125 2 0.294438 0.308769 0.998879
280 3 0.416167 0.309616 0.0461244
173 2 0.537932 0.296854 0.978275
296 3 0.674265 0.313952 0.0660541
221 2 0.793465 0.312577 0.968228
312 3 0.921892 0.327786 0.0603704
6 1 0.0227015 0.444889 0.188666
89 2 0.0445559 0.561883 0.000126889
268 3 0.16732 0.589826 0.0480392
86 2 0.122791 0.448737 0.094301
22 1 0.276557 0.417265 0.16566
137 2 0.293581 0.559247 0.0108592
134 2 0.36852 0.429537 0.115909
284 3 0.41373 0.545149 0.0904429
38 1 0.52768 0.429439 0.184534
185 2 0.54464 0.563863 0.0404711
182 2 0.61899 0.421186 0.110399
300 3 0.66168 0.565278 0.0649903
54 1 0.776411 0.433009 0.15616
233 2 0.797343 0.562383 0.990079
230 2 0.873776 0.455914 0.0992922
316 3 0.923909 0.578697 0.07093
10 1 0.0263706 0.699064 0.16779
98 2 0.113125 0.704988 0.105528
26 1 0.274703 0.691809 0.177511
146 2 0.367487 0.68551 0.124675
42 1 0.518797 0.692228 0.182846
194 2 0.617932 0.689901 0.119164
58 1 0.771336 0.68343 0.161181
242 2 0.86722 0.686922 0.0927628
14 1 0.0101739 0.93288 0.17696
101 2 0.0343306 0.828558 0.995684
272 3 0.168825 0.821506 0.0596263
110 2 0.116591 0.93239 0.0977725
30 1 0.269634 0.937191 0.185319
149 2 0.282055 0.819272 0.998358
158 2 0.366682 0.927729 0.115102
288 3 0.414929 0.808189 0.0731976
46 1 0.517836 0.930205 0.192458
197 2 0.531639 0.801332 0.00702792
206 2 0.615274 0.945133 0.125024
304 3 0.65871 0.821367 0.0704375
62 1 0.774239 0.945851 0.169721
245 2 0.790044 0.808921 0.982506
254 2 0.861671 0.946397 0.120308
320 3 0.907491 0.830997 0.0635552
69 2 0.0713014 0.0586276 0.258181
3 1 0.143673 0.193034 0.326741
72 2 0.19404 0.0830263 0.202964
75 2 0.234249 0.183244 0.392078
117 2 0.332146 0.0639676 0.261504
19 1 0.394643 0.186414 0.32746
120 2 0.444844 0.0526695 0.223867
123 2 0.498581 0.188034 0.388493
165 2 0.569784 0.0682291 0.280809
35 1 0.656664 0.180702 0.331852
168 2 0.700338 0.0611715 0.205299
171 2 0.743936 0.186912 0.365929
51 1 0.896167 0.192805 0.348856
213 2 0.821096 0.0718005 0.283473
216 2 0.944907 0.05365 0.235411
219 2 0.992262 0.206195 0.400361
81 2 0.0755804 0.317468 0.283405
84 2 0.196285 0.306456 0.196342
129 2 0.321445 0.299355 0.286304
132 2 0.447086 0.302302 0.202417
177 2 0.587153 0.298651 0.308903
180 2 0.707965 0.326853 0.21993
225 2 0.824733 0.328688 0.282949
228 2 0.944272 0.316356 0.22837
93 2 0.0745587 0.561498 0.277263
7 1 0.147533 0.454824 0.307765
87 2 0.238802 0.423757 0.396705
96 2 0.201153 0.567991 0.198973
141 2 0.326252 0.544393 0.289249
23 1 0.396308 0.421789 0.326795
144 2 0.456414 0.544661 0.232683
135 2 0.500066 0.432897 0.394093
189 2 0.578481 0.5634 0.284609
39 1 0.647907 0.446382 0.32963
192 2 0.70493 0.561045 0.20514
183 2 0.735712 0.438791 0.386217
55 1 0.894345 0.438673 0.335081
237 2 0.820982 0.565969 0.298178
231 2 0.993031 0.43348 0.395158
240 2 0.952212 0.560621 0.232047
11 1 0.150507 0.689722 0.320962
99 2 0.240207 0.676546 0.38935
27 1 0.390205 0.67106 0.344985
147 2 0.48966 0.683635 0.407696
43 1 0.644151 0.68229 0.310371
195 2 0.736086 0.687511 0.384125
59 1 0.884618 0.692925 0.320319
243 2 0.997133 0.68877 0.375579
105 2 0.0866327 0.807953 0.274754
15 1 0.147668 0.935747 0.319694
108 2 0.20294 0.816771 0.208711
111 2 0.243442 0.937101 0.395682
153 2 0.322713 0.807338 0.279406
31 1 0.398375 0.940785 0.333975
156 2 0.431931 0.79835 0.238914
159 2 0.487126 0.928538 0.410971
201 2 0.571907 0.822345 0.299888
47 1 0.641669 0.934555 0.322889
204 2 0.701197 0.809412 0.219788
207 2 0.742169 0.94398 0.379897
63 1 0.887624 0.943676 0.339856
249 2 0.820955 0.820305 0.290232
252 2 0.939154 0.80991 0.221469
255 2 0.987603 0.912513 0.400848
257 3 0.0327035 0.0546636 0.422351
66 2 0.0826614 0.170137 0.478556
68 2 0.162725 0.0566256 0.496737
259 3 0.208239 0.179848 0.551384
273 3 0.295841 0.0667101 0.423594
114 2 0.339277 0.177963 0.488434
116 2 0.416399 0.0672441 0.495234
275 3 0.461188 0.184851 0.552206
289 3 0.53755 0.054447 0.437401
162 2 0.585344 0.163431 0.515093
164 2 0.665417 0.063829 0.508255
291 3 0.710733 0.178503 0.580079
305 3 0.787771 0.0699377 0.443234
210 2 0.830635 0.191765 0.503799
307 3 0.956813 0.198053 0.569553
212 2 0.924319 0.0657581 0.506905
261 3 0.0437266 0.313758 0.436206
80 2 0.165383 0.313355 0.49108
277 3 0.283624 0.297706 0.446647
128 2 0.423167 0.303182 0.483073
293 3 0.550059 0.306339 0.452479
176 2 0.66245 0.297769 0.515396
309 3 0.784599 0.322214 0.424278
224 2 0.905757 0.310034 0.511807
265 3 0.0394473 0.551628 0.436753
78 2 0.0897599 0.449328 0.497897
92 2 0.173436 0.560468 0.505147
263 3 0.210784 0.431456 0.56815
281 3 0.285925 0.55661 0.433794
126 2 0.330946 0.414589 0.507574
140 2 0.418001 0.549156 0.50774
279 3 0.464859 0.430143 0.550472
297 3 0.543658 0.576304 0.435834
174 2 0.581678 0.444482 0.502048
188 2 0.667931 0.566299 0.50841
295 3 0.705597 0.425794 0.572747
313 3 0.782231 0.563121 0.445591
222 2 0.82901 0.441798 0.501221
311 3 0.952916 0.432434 0.550725
236 2 0.915107 0.565367 0.485413
90 2 0.0865408 0.677741 0.495774
267 3 0.213794 0.684327 0.549641
138 2 0.326211 0.675519 0.507764
283 3 0.456191 0.680749 0.579079
186 2 0.589436 0.698249 0.51465
299 3 0.715644 0.685077 0.570979
234 2 0.829463 0.682151 0.509021
315 3 0.959121 0.696781 0.535598
269 3 0.0482919 0.807346 0.423491
102 2 0.0806835 0.954969 0.489194
104 2 0.167234 0.8035 0.485666
271 3 0.214789 0.951197 0.556908
150 2 0.338817 0.938999 0.507444
285 3 0.294482 0.812134 0.438925
152 2 0.412663 0.794505 0.509755
287 3 0.452488 0.935553 0.567713
301 3 0.538133 0.806123 0.45963
198 2 0.586975 0.930062 0.507135
200 2 0.671571 0.808266 0.51428
303 3 0.717273 0.945258 0.557239
317 3 0.782326 0.81578 0.445959
246 2 0.832972 0.93436 0.50412
319 3 0.964839 0.929339 0.568487
248 2 0.913667 0.813449 0.498723
70 2 0.0516731 0.191453 0.791979
73 2 0.0109934 0.0668894 0.596897
1 1 0.100229 0.0681722 0.661938
71 2 0.176608 0.18824 0.710005
121 2 0.263433 0.0718677 0.604501
17 1 0.353159 0.0741843 0.667261
118 2 0.294882 0.187537 0.782647
119 2 0.429056 0.184516 0.701989
169 2 0.506773 0.0376328 0.613321
33 1 0.594716 0.0530681 0.675713
166 2 0.549227 0.185822 0.790937
167 2 0.674635 0.17648 0.72609
214 2 0.798677 0.16771 0.783093
217 2 0.763668 0.059664 0.61273
49 1 0.861493 0.0659766 0.675669
215 2 0.92774 0.18652 0.729297
85 2 0.0108791 0.330243 0.602027
5 1 0.106878 0.319411 0.653755
133 2 0.256193 0.302808 0.616342
21 1 0.351389 0.310695 0.680682
181 2 0.511999 0.31385 0.605822
37 1 0.608621 0.318244 0.673004
229 2 0.759153 0.308175 0.609383
53 1 0.849862 0.309764 0.675063
82 2 0.0494085 0.444557 0.78162
97 2 0.00513417 0.557356 0.595153
9 1 0.0960204 0.569477 0.676857
83 2 0.176081 0.444862 0.72608
145 2 0.261745 0.544769 0.621167
25 1 0.349508 0.572548 0.67414
130 2 0.303485 0.449155 0.796306
131 2 0.432206 0.429694 0.698806
193 2 0.512204 0.554731 0.610191
41 1 0.601704 0.564582 0.667864
178 2 0.552479 0.438576 0.780976
179 2 0.678854 0.44261 0.72596
226 2 0.805551 0.445459 0.777709
241 2 0.757914 0.54427 0.619143
57 1 0.856227 0.570369 0.670015
227 2 0.930399 0.42096 0.726884
94 2 0.0475382 0.696634 0.788712
95 2 0.178721 0.697386 0.704041
142 2 0.298501 0.708041 0.800612
143 2 0.416267 0.682048 0.737112
190 2 0.546314 0.676033 0.780296
191 2 0.679575 0.687675 0.719824
238 2 0.798242 0.671731 0.763526
239 2 0.930264 0.696165 0.696703
106 2 0.0517391 0.933778 0.767605
109 2 0.00564852 0.79781 0.612001
13 1 0.104048 0.799734 0.661567
107 2 0.172349 0.9278 0.699585
157 2 0.261132 0.82787 0.607733
29 1 0.355634 0.819443 0.689474
154 2 0.295345 0.948595 0.788842
155 2 0.418772 0.947833 0.731693
205 2 0.501868 0.812662 0.629916
45 1 0.614471 0.802126 0.68993
202 2 0.549796 0.919283 0.788283
203 2 0.684871 0.948904 0.723421
250 2 0.803557 0.937578 0.776524
253 2 0.756982 0.817887 0.62963
61 1 0.856535 0.817265 0.664168
251 2 0.927436 0.945796 0.712157
258 3 0.0842661 0.186281 0.939612
76 2 0.132632 0.0579567 0.869335
4 1 0.224511 0.0605328 0.813238
67 2 0.206702 0.176411 0.979262
274 3 0.333732 0.184394 0.930459
124 2 0.382427 0.0602154 0.89139
20 1 0.485423 0.0552989 0.822056
115 2 0.455523 0.189636 0.990771
172 2 0.627828 0.0342976 0.880729
290 3 0.592215 0.183931 0.932256
163 2 0.710542 0.190881 0.994394
36 1 0.733932 0.0539915 0.844703
306 3 0.836994 0.180208 0.936119
220 2 0.883338 0.0566705 0.900196
52 1 0.985626 0.0669877 0.816626
211 2 0.961366 0.183311 0.00941747
88 2 0.135658 0.310813 0.879121
8 1 0.230166 0.319546 0.816976
136 2 0.381871 0.314717 0.869834
24 1 0.473902 0.30865 0.820191
184 2 0.630129 0.318419 0.893284
40 1 0.738809 0.310753 0.821926
232 2 0.886306 0.311125 0.885668
56 1 0.985168 0.310765 0.83085
262 3 0.0908329 0.439937 0.927414
100 2 0.132198 0.593392 0.879266
12 1 0.236486 0.56883 0.817436
79 2 0.210638 0.463738 0.977564